
 Primary working directories    : /tmp/r2518/29452.maple
 Secondary working directories  : /tmp/r2518/29452.maple
 Wavefunction directory         : /ddn/home1/r2518/wfu/
 Main file repository           : /tmp/r2518/29452.maple/

 SHA1      : d5ffa45e93fdbca01ffc919aa182cfdae0147319
 NAME      : 2015.1.35
 ARCHNAME  : linux/x86_64
 FC        : /opt/intel/composer_xe_2015.1.133/bin/intel64/ifort
 BLASLIB   : -Wl,-_start-group /opt/intel/mkl/lib/intel64/libmkl_intel_ilp64.a /opt/intel/mkl/lib/intel64/libmkl_intel_thread.a /opt/intel/mkl/lib/intel64/libmkl_core.a -Wl,-_end-group
 id        : olemiss

 Nodes     nprocs
 cn070        1

 Using customized tuning parameters: mindgm=1; mindgv=20; mindgc=4; mindgr=1; noblas=0; minvec=7
 default implementation of scratch files=df  

 memory,50,m
 nocompress;
 geomtyp=xyz
 angstrom
 geometry={
 O,0.0,0.0,-0.0707441568
 H,0.0,0.7574590974,0.5217905143
 H,0.0,-0.7574590974,0.5217905143
 }
 basis=cc-pVTZ-F12
 set,charge=0
 set,spin=0
 hf
 {CCSD(T)-F12}

 Variables initialized (889), CPU time= 0.00 sec
 Commands  initialized (702), CPU time= 0.01 sec, 572 directives.
 Default parameters read. Elapsed time= 0.06 sec

 Checking input...
 Passed
1


                                         ***  PROGRAM SYSTEM MOLPRO  ***
                                       Copyright, TTI GmbH Stuttgart, 2015
                                    Version 2015.1 linked Jul  9 2018 13:16:40


 **********************************************************************************************************************************
 LABEL *                                                                                 
  64 bit serial version                                                                  DATE: 11-Sep-19          TIME: 13:35:00  
 **********************************************************************************************************************************

 SHA1:             d5ffa45e93fdbca01ffc919aa182cfdae0147319
 **********************************************************************************************************************************

 Input parameters for SORTINT:

 COMPRESS =    0.000000
 C_FINAL  =    1.000000
 DEBUG    =   -1.000000
 C_SORT1  =    0.000000
 C_SEWARD =    0.000000
 THRESH   =    0.000000
 IO       =  molpro                                                          
 SPRI     =    0.000000
 SETTING GEOMTYP        =    XYZ
 ZUNIT=ANG
 

 Variable memory set to   50000000 words,  buffer space   230000 words

 SETTING BASIS          =    CC-PVTZ-F12
 SETTING CHARGE         =     0.00000000D+00                                  
 SETTING SPIN           =     0.00000000D+00                                  


 Recomputing integrals since basis changed


 Using spherical harmonics

 Library entry O      S cc-pVTZ-F12          selected for orbital group  1
 Library entry O      P cc-pVTZ-F12          selected for orbital group  1
 Library entry O      D cc-pVTZ-F12          selected for orbital group  1
 Library entry O      F cc-pVTZ-F12          selected for orbital group  1
 Library entry H      S cc-pVTZ-F12          selected for orbital group  2
 Library entry H      P cc-pVTZ-F12          selected for orbital group  2
 Library entry H      D cc-pVTZ-F12          selected for orbital group  2


 PROGRAM * SEWARD (Integral evaluation for generally contracted gaussian basis sets)     Author: Roland Lindh, 1990

 Geometry written to block  1 of record 700


 Point group  C2v 



 ATOMIC COORDINATES

 NR  ATOM    CHARGE       X              Y              Z

   1  O       8.00    0.000000000    0.000000000   -0.133687081
   2  H       1.00    0.000000000    1.431390245    0.986041166
   3  H       1.00    0.000000000   -1.431390245    0.986041166

 Bond lengths in Bohr (Angstrom)

 1-2  1.817324787  1-3  1.817324787
     ( 0.961686862)     ( 0.961686862)

 Bond angles

  2-1-3  103.93025663

 NUCLEAR CHARGE:                   10
 NUMBER OF PRIMITIVE AOS:         114
 NUMBER OF SYMMETRY AOS:          103
 NUMBER OF CONTRACTIONS:           89   (  35A1  +  18B1  +  26B2  +  10A2  )
 NUMBER OF CORE ORBITALS:           1   (   1A1  +   0B1  +   0B2  +   0A2  )
 NUMBER OF VALENCE ORBITALS:        6   (   3A1  +   1B1  +   2B2  +   0A2  )


 NUCLEAR REPULSION ENERGY    9.15346074

 Eigenvalues of metric

         1 0.217E-03 0.575E-03 0.712E-03 0.159E-02 0.216E-02 0.402E-02 0.743E-02 0.178E-01
         2 0.692E-03 0.101E-01 0.441E-01 0.840E-01 0.129E+00 0.221E+00 0.246E+00 0.364E+00
         3 0.456E-03 0.798E-03 0.203E-02 0.442E-02 0.895E-02 0.138E-01 0.175E-01 0.452E-01
         4 0.858E-02 0.891E-01 0.191E+00 0.315E+00 0.423E+00 0.587E+00 0.883E+00 0.127E+01


 Contracted 2-electron integrals neglected if value below      1.0D-11

        1872805. INTEGRALS WRITTEN OUT IN     458 BLOCKS ON RECORD 1290 OF FILE 1


 NUMBER OF SORTED TWO-ELECTRON INTEGRALS:    2124910.     BUFFER LENGTH:  32768
 NUMBER OF SEGMENTS:   1  SEGMENT LENGTH:    2124910      RECORD LENGTH: 524288

 Memory used in sort:       2.68 MW

 SORT1 READ     1872805. AND WROTE     1933139. INTEGRALS IN      6 RECORDS. CPU TIME:     0.07 SEC, REAL TIME:     0.08 SEC
 SORT2 READ     1933139. AND WROTE     2124910. INTEGRALS IN      1 RECORDS. CPU TIME:     0.05 SEC, REAL TIME:     0.07 SEC

 FILE SIZES:   FILE 1:    50.1 MBYTE,  FILE 4:    25.2 MBYTE,   TOTAL:     75.3 MBYTE

 OPERATOR DM      FOR CENTER  0  COORDINATES:    0.000000    0.000000    0.000000


 **********************************************************************************************************************************
 DATASETS  * FILE   NREC   LENGTH (MB)   RECORD NAMES
              1      19       35.96       500      610      700      900      950      970     1000      129      960     1100   
                                          VAR    BASINP    GEOM    SYMINP    ZMAT    AOBASIS   BASIS     P2S    ABASIS      S 
                                         1400     1410     1200     1210     1080     1600     1650     1300     1700   
                                           T        V       H0       H01     AOSYM     SMH    MOLCAS    ERIS     OPER   

 PROGRAMS   *        TOTAL       INT
 CPU TIMES  *         0.45      0.37
 REAL TIME  *         0.64 SEC
 DISK USED  *        75.63 MB      
 **********************************************************************************************************************************


 PROGRAM * RHF-SCF (CLOSED SHELL)       Authors: W. Meyer, H.-J. Werner


 NUMBER OF ELECTRONS:       5+    5-
 CONVERGENCE THRESHOLDS:    1.00E-05 (Density)    1.00E-07 (Energy)
 MAX. NUMBER OF ITERATIONS:       60
 INTERPOLATION TYPE:            DIIS
 INTERPOLATION STEPS:              2 (START)      1 (STEP)
 LEVEL SHIFTS:                  0.00 (CLOSED)  0.00 (OPEN) 



 Orbital guess generated from atomic densities. Full valence occupancy:    4   1   2   0

 Molecular orbital dump at record        2100.2

 Initial occupancy:   3   1   1   0

 ITERATION    DDIFF          GRAD             ENERGY        2-EL.EN.            DIPOLE MOMENTS         DIIS   ORB.
    1      0.000D+00      0.000D+00       -76.02657878     77.614638    0.00000    0.00000    1.14520    0    start
    2      0.000D+00      0.185D-01       -76.05356152     74.021410    0.00000    0.00000    0.67907    1    diag
    3      0.205D-01      0.116D-01       -76.06466691     75.606663    0.00000    0.00000    0.79470    2    diag
    4      0.699D-02      0.109D-02       -76.06485304     75.515265    0.00000    0.00000    0.79091    3    diag
    5      0.102D-02      0.298D-03       -76.06487198     75.529445    0.00000    0.00000    0.78955    4    diag
    6      0.359D-03      0.574D-04       -76.06487312     75.528504    0.00000    0.00000    0.78926    5    diag
    7      0.101D-03      0.113D-04       -76.06487317     75.528648    0.00000    0.00000    0.78915    6    diag
    8      0.215D-04      0.222D-05       -76.06487318     75.528638    0.00000    0.00000    0.78911    7    diag
    9      0.400D-05      0.276D-06       -76.06487318     75.528625    0.00000    0.00000    0.78910    0    orth

 Final occupancy:   3   1   1   0

 !RHF STATE 1.1 Energy                -76.064873176278
 Nuclear energy                         9.15346074
 One-electron energy                 -122.98264628
 Two-electron energy                   37.76431237
 Virial quotient                       -1.00113956
 !RHF STATE 1.1 Dipole moment           0.00000000     0.00000000     0.78910347
 Dipole moment /Debye                   0.00000000     0.00000000     2.00556960

 Orbital energies:

         1.1          2.1          3.1          4.1          5.1
    -20.565931    -1.351097    -0.585312     0.101762     0.144700

         1.2          2.2          3.2
     -0.510325     0.145292     0.508012

         1.3          2.3          3.3
     -0.714345     0.120977     0.225099

         1.4          2.4
      0.481246     1.304290

 HOMO      1.2    -0.510325 =     -13.8867eV
 LUMO      4.1     0.101762 =       2.7691eV
 LUMO-HOMO         0.612088 =      16.6558eV


 **********************************************************************************************************************************
 DATASETS  * FILE   NREC   LENGTH (MB)   RECORD NAMES
              1      19       35.96       500      610      700      900      950      970     1000      129      960     1100   
                                          VAR    BASINP    GEOM    SYMINP    ZMAT    AOBASIS   BASIS     P2S    ABASIS      S 
                                         1400     1410     1200     1210     1080     1600     1650     1300     1700   
                                           T        V       H0       H01     AOSYM     SMH    MOLCAS    ERIS     OPER   

              2       4        2.84       700     1000      520     2100   
                                         GEOM     BASIS   MCVARS     RHF  

 PROGRAMS   *        TOTAL        HF       INT
 CPU TIMES  *         0.53      0.08      0.37
 REAL TIME  *         0.74 SEC
 DISK USED  *        75.63 MB      
 **********************************************************************************************************************************


 PROGRAM * CCSD (Closed-shell coupled cluster)     Authors: C. Hampel, H.-J. Werner, 1991, M. Deegan, P.J. Knowles, 1992

                                  CCSD-F12 implementation by  H.-J. Werner, 2007

                   Density fitting integral evaluation by F.R. Manby, 2003,2007, G. Knizia, 2010

 Basis set AUG-CC-PVTZ/JKFIT generated.  Number of basis functions:   196 
 Basis set CC-PVTZ-F12/OPTRI generated.  Number of basis functions:   157 
 Basis set AUG-CC-PVTZ/MP2FIT generated. Number of basis functions:   198 

 Convergence thresholds:  THRVAR = 1.00D-08  THRDEN = 1.00D-06

 CCSD(T)     terms to be evaluated (factor= 1.000)


 Number of core orbitals:           1 (   1   0   0   0 )
 Number of closed-shell orbitals:   4 (   2   1   1   0 )
 Number of external orbitals:      84 (  32  17  25  10 )

 Molecular orbitals read from record     2100.2  Type=RHF/CANONICAL (state 1.1)

 MP2-F12 correlation treatment (H.-J. Werner, 2006)
 ==================================================

 Using MP2-F12 with ansatz 3C(FIX)

 Using projected zeroth-order Hamiltonian (+Z)

 FOCKRIB=T FOCKRIC=T FOCKRIP=T CABSP=T CABSA=T CABSK=T CABSF=T GBC=F EBC=F DMAT=T NOFIK=T NOPAO=1 SOLVE=-1  USEPAO=0
 EXCH_A= T EXCH_B= F EXCH_C= F EXCH_P= F
 
 Geminal basis:    OPTFULL  GEM_TYPE=SLATER  BETA=1.0  NGEM=6

 Optimizing Gaussian exponents for each gem_beta

 Geminal optimization for beta= 1.0000
 Weight function:   m=0, omega= 1.4646

 Augmented Hessian optimization of geminal fit. Trust ratio= 0.40000
 Convergence reached after   2 iterations. Final gradient= 8.41D-16, Step= 4.29D-06, Delta= 1.28D-09
 
 Alpha:                 0.19532     0.81920     2.85917     9.50073    35.69989   197.79328
 Coeff:                 0.27070     0.30552     0.18297     0.10986     0.06810     0.04224
 

 Symmetry turned off. Reference energy:        -76.064873176278

 All pairs explicitly correlated. Number of r12-pairs:           10

 Excluding core orbitals from MO domains
 
 AO(A)-basis ORBITAL           loaded. Number of functions:      89
 RI(R)-basis CC-PVTZ-F12/OPTRI loaded. Number of functions:     157
 DF-basis AUG-CC-PVTZ/JKFIT    loaded. Number of functions:     196

 Screening thresholds:   THRAO=  1.00D-10  THRMO=  1.00D-09  THRPROD=  1.00D-09
                         THRSW=  1.00D-05  THROV=  1.00D-12  THRAOF12=   1.00D-08

 CPU time for Fock operators                      0.88 sec
 
 Construction of ABS:
 Smallest eigenvalue of S          7.93E-04  (threshold= 1.00E-08)
 Ratio eigmin/eigmax               1.32E-04  (threshold= 1.00E-09)
 Smallest eigenvalue of S kept     7.93E-04  (threshold= 7.93E-04, 0 functions deleted, 157 kept)
 
 Construction of CABS:
 Smallest eigenvalue of S          1.89E-06  (threshold= 1.00E-08)
 Ratio eigmin/eigmax               1.89E-06  (threshold= 1.00E-09)
 Smallest eigenvalue of S kept     1.89E-06  (threshold= 1.89E-06, 0 functions deleted, 157 kept)
 
 CPU time for CABS singles                        0.01 sec

 CABS-singles contribution of  -0.00100287 patched into reference energy.
 New reference energy         -76.06587605
 
 AO(A)-basis ORBITAL           loaded. Number of functions:      89
 RI(R)-basis CC-PVTZ-F12/OPTRI loaded. Number of functions:     157
 DF-basis AUG-CC-PVTZ/MP2FIT   loaded. Number of functions:     198

 Screening thresholds:   THRAO=  1.00D-10  THRMO=  1.00D-09  THRPROD=  1.00D-09
                         THRSW=  1.00D-05  THROV=  1.00D-12  THRAOF12=   1.00D-08

 CPU time for 3-index integral evaluation         0.43 sec
 CPU time for first  half transformation          0.03 sec ( 5878.7 MFLOP/sec)
 CPU time for sorting                             0.01 sec
 CPU time for assembly                            0.03 sec (17837.5 MFLOP/sec)
 CPU time for tranop_f12                          0.03 sec (21731.0 MFLOP/sec)
 CPU time for f12 integrals (total)               1.23 sec, Elapsed time:      1.24 sec
 CPU time for f12 matrices (total)                0.00 sec, Elapsed time:      0.01 sec

 Diagonal F12 approximation with fixed coefficients:  TSING= 0.500,  TTRIP= 0.250 (scaled by -1/beta)

 DF-MP2-F12 energy corrections:
 ==============================
 Approx.                                    Singlet             Triplet             Total
 DF-MP2-F12/3*C(DX,FIX)                -0.025243757985     -0.003019133672     -0.028262891657
 DF-MP2-F12/3*C(FIX)                   -0.023450455069     -0.002729560891     -0.026180015960
 DF-MP2-F12/3C(FIX)                    -0.023374599859     -0.002825758383     -0.026200358242

 DF-MP2-F12 correlation energies:
 ================================
 Approx.                                    Singlet             Triplet             Ecorr            Total Energy
 DF-MP2                                -0.174038626792     -0.099323812748     -0.273362439540    -76.339238489019
 DF-MP2-F12/3*C(DX,FIX)                -0.199282384777     -0.102342946419     -0.301625331196    -76.367501380675
 DF-MP2-F12/3*C(FIX)                   -0.197489081861     -0.102053373638     -0.299542455499    -76.365418504979
 DF-MP2-F12/3C(FIX)                    -0.197413226651     -0.102149571131     -0.299562797782    -76.365438847261

 SCS-DF-MP2 energies (F_SING= 1.20000  F_TRIP= 0.62222  F_PARALLEL= 0.33333):
 ============================================================================
 SCS-DF-MP2                            -0.270647835638    -76.336523885117
 SCS-DF-MP2-F12/3*C(DX,FIX)            -0.302818917282    -76.368694966761
 SCS-DF-MP2-F12/3*C(FIX)               -0.300486775164    -76.366362824643
 SCS-DF-MP2-F12/3C(FIX)                -0.300455605129    -76.366331654608

 Symmetry restored.
 Symmetry transformation completed.

 Number of N-1 electron functions:               4
 Number of N-2 electron functions:              10
 Number of singly external CSFs:               106
 Number of doubly external CSFs:             14828
 Total number of CSFs:                       14935

 Length of J-op  integral file:               8.86 MB
 Length of K-op  integral file:              13.00 MB
 Length of 3-ext integral record:             0.00 MB

 Memory could be reduced to 1.33 Mwords without degradation in triples

 Integral transformation finished. Total CPU:   0.02 sec, npass=  1  Memory used:   0.24 MW

 Reference energy:                    -76.06587605

 Adding F12 terms to K(Cij), methodcc=6,  factor= 1.0

 ITER.      SQ.NORM     CORR.ENERGY   TOTAL ENERGY   ENERGY CHANGE        DEN1      VAR(S)    VAR(P)  DIIS     TIME  TIME/IT
   1      1.06164791    -0.27366654   -76.33954259    -0.00026156     0.00554600  0.72D-03  0.96D-03  1  1     2.33     0.03
   2      1.06487921    -0.27340041   -76.33927646     0.00026612    -0.00453609  0.13D-04  0.10D-03  2  2     2.35     0.03
   3      1.06600954    -0.27352599   -76.33940204    -0.00012557    -0.00078234  0.85D-05  0.66D-05  3  3     2.37     0.03
   4      1.06652328    -0.27354714   -76.33942319    -0.00002115    -0.00034229  0.42D-06  0.51D-06  4  4     2.39     0.03
   5      1.06661052    -0.27354558   -76.33942163     0.00000155    -0.00001905  0.12D-06  0.31D-07  5  5     2.40     0.03
   6      1.06663406    -0.27354432   -76.33942037     0.00000127    -0.00000391  0.10D-07  0.31D-08  6  6     2.43     0.03
   7      1.06664011    -0.27354395   -76.33941999     0.00000037    -0.00000138  0.87D-09  0.24D-09  6  1     2.45     0.03
   8      1.06664151    -0.27354400   -76.33942005    -0.00000006    -0.00000001  0.66D-10  0.26D-10  6  2     2.47     0.03

 Norm of t1 vector:      0.03516352      S-energy:    -0.00000011      T1 diagnostic:  0.00879088
                                                                       D1 diagnostic:  0.01759461

 Adding energy correction from Wij-K(Fij), methodcc=6  factor= 1.0
 
  CCSD correlation energy              -0.273544002869
  MP2-F12 correction (uncoupled)       -0.025077150923
  C*T doubles correction               -0.000842555200
  f12b correction                       0.004274461315


 Total CPU time for triples:      0.09 sec


 RESULTS
 =======

  Reference energy                    -76.064873176278
  F12 singles correction               -0.001002873201

 F12 singles corrections added to reference energy

  New reference energy                -76.065876049479

  F12a singlet correction              -0.023200078612
  F12a triplet correction              -0.002719627511
  F12a total correction                -0.025919706123

 F12a corrections for ansatz F12/3C(FIX) added to CCSD energy
 
  CCSD-F12a singlet pair energy        -0.208698122549
  CCSD-F12a triplet pair energy        -0.090765479621
  CCSD-F12a correlation energy         -0.299463708991

  Triples (T) contribution             -0.008753528861
  Total correlation energy             -0.308217237852

  CCSD-F12a total energy              -76.365339758471
  CCSD[T]-F12a energy                 -76.374387281824
  CCSD-T-F12a energy                  -76.373965104396
 !CCSD(T)-F12a total energy           -76.374093287331

 F12b corrections for ansatz F12/3C(FIX) added to CCSD(T)-F12a energy

  CCSD-F12b singlet pair energy        -0.204735088489
  CCSD-F12b triplet pair energy        -0.090454052366
  CCSD-F12b correlation energy         -0.295189247677

  Triples (T) contribution             -0.008753528861
  Total correlation energy             -0.303942776538

  CCSD-F12b total energy              -76.361065297156
  CCSD[T]-F12b energy                 -76.370112820510
  CCSD-T-F12b energy                  -76.369690643082
 !CCSD(T)-F12b total energy           -76.369818826017

 Timing summary (sec):

 STEP                 CPU(USER)    SYS     CPU(TOT)    WALL
 Transformation          0.02      0.01      0.03      0.04
 CCSD iterations         0.19      0.06      0.25      0.26
 Triples                 0.09      0.00      0.09      0.10
 MP2-F12                 2.26      0.03      2.29      2.29
 F12b energy             0.02      0.01      0.03      0.02

 Program statistics:

 Available memory in ccsd:                49999786
 Min. memory needed in ccsd:                 74516
 Max. memory used in ccsd:                   84748
 Max. memory used in cckext:                120394 ( 9 integral passes)



 **********************************************************************************************************************************
 DATASETS  * FILE   NREC   LENGTH (MB)   RECORD NAMES
              1      20       38.72       500      610      700      900      950      970     1000      129      960     1100   
                                          VAR    BASINP    GEOM    SYMINP    ZMAT    AOBASIS   BASIS     P2S    ABASIS      S 
                                         1400     1410     1200     1210     1080     1600     1650     1300     1700     1380   
                                           T        V       H0       H01     AOSYM     SMH    MOLCAS    ERIS     OPER     JKOP   

              2       6        2.89       700     1000      520     2100     7360     7350   
                                         GEOM     BASIS   MCVARS     RHF    F12ABS    EF12   

 PROGRAMS   *        TOTAL   CCSD(T)        HF       INT
 CPU TIMES  *         3.14      2.60      0.08      0.37
 REAL TIME  *         3.50 SEC
 DISK USED  *        78.37 MB      
 **********************************************************************************************************************************

 CCSD(T)-F12/cc-pVTZ-F12 energy=    -76.369818826017

     CCSD(T)-F12        HF-SCF  
    -76.36981883    -76.06487318
 **********************************************************************************************************************************
 Molpro calculation terminated
 Variable memory released
