
 Primary working directories    : /tmp/r2518/29455.maple
 Secondary working directories  : /tmp/r2518/29455.maple
 Wavefunction directory         : /ddn/home1/r2518/wfu/
 Main file repository           : /tmp/r2518/29455.maple/

 SHA1      : d5ffa45e93fdbca01ffc919aa182cfdae0147319
 NAME      : 2015.1.35
 ARCHNAME  : linux/x86_64
 FC        : /opt/intel/composer_xe_2015.1.133/bin/intel64/ifort
 BLASLIB   : -Wl,-_start-group /opt/intel/mkl/lib/intel64/libmkl_intel_ilp64.a /opt/intel/mkl/lib/intel64/libmkl_intel_thread.a /opt/intel/mkl/lib/intel64/libmkl_core.a -Wl,-_end-group
 id        : olemiss

 Nodes     nprocs
 cn068        1

 Using customized tuning parameters: mindgm=1; mindgv=20; mindgc=4; mindgr=1; noblas=0; minvec=7
 default implementation of scratch files=df  

 memory,50,m
 nocompress;
 geomtyp=xyz
 angstrom
 geometry={
 O,0.0,0.0,-0.0657441568
 H,0.0,0.7624590974,0.5217905143
 H,0.0,-0.7574590974,0.5217905143
 }
 basis=cc-pVTZ-F12
 set,charge=0
 set,spin=0
 hf
 {CCSD(T)-F12}

 Variables initialized (889), CPU time= 0.00 sec
 Commands  initialized (702), CPU time= 0.01 sec, 572 directives.
 Default parameters read. Elapsed time= 0.05 sec

 Checking input...
 Passed
1


                                         ***  PROGRAM SYSTEM MOLPRO  ***
                                       Copyright, TTI GmbH Stuttgart, 2015
                                    Version 2015.1 linked Jul  9 2018 13:16:40


 **********************************************************************************************************************************
 LABEL *                                                                                 
  64 bit serial version                                                                  DATE: 11-Sep-19          TIME: 13:35:00  
 **********************************************************************************************************************************

 SHA1:             d5ffa45e93fdbca01ffc919aa182cfdae0147319
 **********************************************************************************************************************************

 Input parameters for SORTINT:

 COMPRESS =    0.000000
 C_FINAL  =    1.000000
 DEBUG    =   -1.000000
 C_SORT1  =    0.000000
 C_SEWARD =    0.000000
 THRESH   =    0.000000
 IO       =  molpro                                                          
 SPRI     =    0.000000
 SETTING GEOMTYP        =    XYZ
 ZUNIT=ANG
 

 Variable memory set to   50000000 words,  buffer space   230000 words

 SETTING BASIS          =    CC-PVTZ-F12
 SETTING CHARGE         =     0.00000000D+00                                  
 SETTING SPIN           =     0.00000000D+00                                  


 Recomputing integrals since basis changed


 Using spherical harmonics

 Library entry O      S cc-pVTZ-F12          selected for orbital group  1
 Library entry O      P cc-pVTZ-F12          selected for orbital group  1
 Library entry O      D cc-pVTZ-F12          selected for orbital group  1
 Library entry O      F cc-pVTZ-F12          selected for orbital group  1
 Library entry H      S cc-pVTZ-F12          selected for orbital group  2
 Library entry H      P cc-pVTZ-F12          selected for orbital group  2
 Library entry H      D cc-pVTZ-F12          selected for orbital group  2


 PROGRAM * SEWARD (Integral evaluation for generally contracted gaussian basis sets)     Author: Roland Lindh, 1990

 Geometry written to block  1 of record 700


 Point group  Cs  



 ATOMIC COORDINATES

 NR  ATOM    CHARGE       X              Y              Z

   1  O       8.00    0.000000000    0.000000000   -0.124238451
   2  H       1.00    0.000000000    1.440838875    0.986041166
   3  H       1.00    0.000000000   -1.431390245    0.986041166

 Bond lengths in Bohr (Angstrom)

 1-2  1.818993538  1-3  1.811518385
     ( 0.962569927)     ( 0.958614247)

 Bond angles

  2-1-3  104.58343392

 NUCLEAR CHARGE:                   10
 NUMBER OF PRIMITIVE AOS:         114
 NUMBER OF SYMMETRY AOS:          103
 NUMBER OF CONTRACTIONS:           89   (  61A'  +  28A"  )
 NUMBER OF CORE ORBITALS:           1   (   1A'  +   0A"  )
 NUMBER OF VALENCE ORBITALS:        6   (   5A'  +   1A"  )


 NUCLEAR REPULSION ENERGY    9.16238298

 Eigenvalues of metric

         1 0.216E-03 0.453E-03 0.574E-03 0.711E-03 0.797E-03 0.159E-02 0.203E-02 0.216E-02
         2 0.692E-03 0.849E-02 0.101E-01 0.439E-01 0.839E-01 0.892E-01 0.128E+00 0.191E+00


 Contracted 2-electron integrals neglected if value below      1.0D-11

        3628306. INTEGRALS WRITTEN OUT IN     887 BLOCKS ON RECORD 1290 OF FILE 1


 NUMBER OF SORTED TWO-ELECTRON INTEGRALS:    4174745.     BUFFER LENGTH:  32768
 NUMBER OF SEGMENTS:   1  SEGMENT LENGTH:    4174745      RECORD LENGTH: 524288

 Memory used in sort:       4.73 MW

 SORT1 READ     3628306. AND WROTE     3690030. INTEGRALS IN     11 RECORDS. CPU TIME:     0.12 SEC, REAL TIME:     0.13 SEC
 SORT2 READ     3690030. AND WROTE     4174745. INTEGRALS IN      1 RECORDS. CPU TIME:     0.08 SEC, REAL TIME:     0.10 SEC

 FILE SIZES:   FILE 1:    78.3 MBYTE,  FILE 4:    46.2 MBYTE,   TOTAL:    124.4 MBYTE

 OPERATOR DM      FOR CENTER  0  COORDINATES:    0.000000    0.000000    0.000000


 **********************************************************************************************************************************
 DATASETS  * FILE   NREC   LENGTH (MB)   RECORD NAMES
              1      19       50.78       500      610      700      900      950      970     1000      129      960     1100   
                                          VAR    BASINP    GEOM    SYMINP    ZMAT    AOBASIS   BASIS     P2S    ABASIS      S 
                                         1400     1410     1200     1210     1080     1600     1650     1300     1700   
                                           T        V       H0       H01     AOSYM     SMH    MOLCAS    ERIS     OPER   

 PROGRAMS   *        TOTAL       INT
 CPU TIMES  *         0.62      0.54
 REAL TIME  *         0.83 SEC
 DISK USED  *       124.76 MB      
 **********************************************************************************************************************************


 PROGRAM * RHF-SCF (CLOSED SHELL)       Authors: W. Meyer, H.-J. Werner


 NUMBER OF ELECTRONS:       5+    5-
 CONVERGENCE THRESHOLDS:    1.00E-05 (Density)    1.00E-07 (Energy)
 MAX. NUMBER OF ITERATIONS:       60
 INTERPOLATION TYPE:            DIIS
 INTERPOLATION STEPS:              2 (START)      1 (STEP)
 LEVEL SHIFTS:                  0.00 (CLOSED)  0.00 (OPEN) 



 Orbital guess generated from atomic densities. Full valence occupancy:    6   1

 Molecular orbital dump at record        2100.2

 Initial occupancy:   4   1

 ITERATION    DDIFF          GRAD             ENERGY        2-EL.EN.            DIPOLE MOMENTS         DIIS   ORB.
    1      0.000D+00      0.000D+00       -76.02683068     77.632159    0.00000    0.00611    1.13680    0    start
    2      0.000D+00      0.136D-01       -76.05375178     74.041652    0.00000    0.00238    0.67600    1    diag
    3      0.147D-01      0.849D-02       -76.06479683     75.623459    0.00000    0.00304    0.79002    2    diag
    4      0.505D-02      0.802D-03       -76.06498231     75.532289    0.00000    0.00279    0.78633    3    diag
    5      0.734D-03      0.218D-03       -76.06500097     75.546293    0.00000    0.00269    0.78499    4    diag
    6      0.256D-03      0.418D-04       -76.06500209     75.545366    0.00000    0.00266    0.78470    5    diag
    7      0.724D-04      0.821D-05       -76.06500214     75.545509    0.00000    0.00265    0.78459    6    diag
    8      0.154D-04      0.163D-05       -76.06500214     75.545500    0.00000    0.00265    0.78454    7    diag
    9      0.288D-05      0.206D-06       -76.06500214     75.545487    0.00000    0.00265    0.78454    0    orth

 Final occupancy:   4   1

 !RHF STATE 1.1 Energy                -76.065002140863
 Nuclear energy                         9.16238298
 One-electron energy                 -123.00012847
 Two-electron energy                   37.77274335
 Virial quotient                       -1.00109986
 !RHF STATE 1.1 Dipole moment           0.00000000     0.00265098     0.78454156
 Dipole moment /Debye                   0.00000000     0.00673768     1.99397515

 Orbital energies:

         1.1          2.1          3.1          4.1          5.1          6.1
    -20.565451    -1.351196    -0.716209    -0.584243     0.101968     0.120725

         1.2          2.2          3.2
     -0.510222     0.145300     0.480763

 HOMO      1.2    -0.510222 =     -13.8839eV
 LUMO      5.1     0.101968 =       2.7747eV
 LUMO-HOMO         0.612190 =      16.6585eV


 **********************************************************************************************************************************
 DATASETS  * FILE   NREC   LENGTH (MB)   RECORD NAMES
              1      19       50.78       500      610      700      900      950      970     1000      129      960     1100   
                                          VAR    BASINP    GEOM    SYMINP    ZMAT    AOBASIS   BASIS     P2S    ABASIS      S 
                                         1400     1410     1200     1210     1080     1600     1650     1300     1700   
                                           T        V       H0       H01     AOSYM     SMH    MOLCAS    ERIS     OPER   

              2       4        2.88       700     1000      520     2100   
                                         GEOM     BASIS   MCVARS     RHF  

 PROGRAMS   *        TOTAL        HF       INT
 CPU TIMES  *         0.88      0.26      0.54
 REAL TIME  *         1.15 SEC
 DISK USED  *       124.76 MB      
 **********************************************************************************************************************************


 PROGRAM * CCSD (Closed-shell coupled cluster)     Authors: C. Hampel, H.-J. Werner, 1991, M. Deegan, P.J. Knowles, 1992

                                  CCSD-F12 implementation by  H.-J. Werner, 2007

                   Density fitting integral evaluation by F.R. Manby, 2003,2007, G. Knizia, 2010

 Basis set AUG-CC-PVTZ/JKFIT generated.  Number of basis functions:   196 
 Basis set CC-PVTZ-F12/OPTRI generated.  Number of basis functions:   157 
 Basis set AUG-CC-PVTZ/MP2FIT generated. Number of basis functions:   198 

 Convergence thresholds:  THRVAR = 1.00D-08  THRDEN = 1.00D-06

 CCSD(T)     terms to be evaluated (factor= 1.000)


 Number of core orbitals:           1 (   1   0 )
 Number of closed-shell orbitals:   4 (   3   1 )
 Number of external orbitals:      84 (  57  27 )

 Molecular orbitals read from record     2100.2  Type=RHF/CANONICAL (state 1.1)

 MP2-F12 correlation treatment (H.-J. Werner, 2006)
 ==================================================

 Using MP2-F12 with ansatz 3C(FIX)

 Using projected zeroth-order Hamiltonian (+Z)

 FOCKRIB=T FOCKRIC=T FOCKRIP=T CABSP=T CABSA=T CABSK=T CABSF=T GBC=F EBC=F DMAT=T NOFIK=T NOPAO=1 SOLVE=-1  USEPAO=0
 EXCH_A= T EXCH_B= F EXCH_C= F EXCH_P= F
 
 Geminal basis:    OPTFULL  GEM_TYPE=SLATER  BETA=1.0  NGEM=6

 Optimizing Gaussian exponents for each gem_beta

 Geminal optimization for beta= 1.0000
 Weight function:   m=0, omega= 1.4646

 Augmented Hessian optimization of geminal fit. Trust ratio= 0.40000
 Convergence reached after   2 iterations. Final gradient= 8.41D-16, Step= 4.29D-06, Delta= 1.28D-09
 
 Alpha:                 0.19532     0.81920     2.85917     9.50073    35.69989   197.79328
 Coeff:                 0.27070     0.30552     0.18297     0.10986     0.06810     0.04224
 

 Symmetry turned off. Reference energy:        -76.065002140863

 All pairs explicitly correlated. Number of r12-pairs:           10

 Excluding core orbitals from MO domains
 
 AO(A)-basis ORBITAL           loaded. Number of functions:      89
 RI(R)-basis CC-PVTZ-F12/OPTRI loaded. Number of functions:     157
 DF-basis AUG-CC-PVTZ/JKFIT    loaded. Number of functions:     196

 Screening thresholds:   THRAO=  1.00D-10  THRMO=  1.00D-09  THRPROD=  1.00D-09
                         THRSW=  1.00D-05  THROV=  1.00D-12  THRAOF12=   1.00D-08

 CPU time for Fock operators                      0.90 sec
 
 Construction of ABS:
 Smallest eigenvalue of S          7.89E-04  (threshold= 1.00E-08)
 Ratio eigmin/eigmax               1.32E-04  (threshold= 1.00E-09)
 Smallest eigenvalue of S kept     7.89E-04  (threshold= 7.89E-04, 0 functions deleted, 157 kept)
 
 Construction of CABS:
 Smallest eigenvalue of S          1.88E-06  (threshold= 1.00E-08)
 Ratio eigmin/eigmax               1.88E-06  (threshold= 1.00E-09)
 Smallest eigenvalue of S kept     1.88E-06  (threshold= 1.88E-06, 0 functions deleted, 157 kept)
 
 CPU time for CABS singles                        0.01 sec

 CABS-singles contribution of  -0.00100445 patched into reference energy.
 New reference energy         -76.06600659
 
 AO(A)-basis ORBITAL           loaded. Number of functions:      89
 RI(R)-basis CC-PVTZ-F12/OPTRI loaded. Number of functions:     157
 DF-basis AUG-CC-PVTZ/MP2FIT   loaded. Number of functions:     198

 Screening thresholds:   THRAO=  1.00D-10  THRMO=  1.00D-09  THRPROD=  1.00D-09
                         THRSW=  1.00D-05  THROV=  1.00D-12  THRAOF12=   1.00D-08

 CPU time for 3-index integral evaluation         0.45 sec
 CPU time for first  half transformation          0.04 sec ( 4409.0 MFLOP/sec)
 CPU time for assembly                            0.02 sec (26756.3 MFLOP/sec)
 CPU time for tranop_f12                          0.02 sec (32596.5 MFLOP/sec)
 CPU time for f12 integrals (total)               1.27 sec, Elapsed time:      1.29 sec
 CPU time for f12 matrices (total)                0.01 sec, Elapsed time:      0.01 sec

 Diagonal F12 approximation with fixed coefficients:  TSING= 0.500,  TTRIP= 0.250 (scaled by -1/beta)

 DF-MP2-F12 energy corrections:
 ==============================
 Approx.                                    Singlet             Triplet             Total
 DF-MP2-F12/3*C(DX,FIX)                -0.025252046034     -0.003020064504     -0.028272110538
 DF-MP2-F12/3*C(FIX)                   -0.023457227503     -0.002730061663     -0.026187289166
 DF-MP2-F12/3C(FIX)                    -0.023381531682     -0.002826276233     -0.026207807915

 DF-MP2-F12 correlation energies:
 ================================
 Approx.                                    Singlet             Triplet             Ecorr            Total Energy
 DF-MP2                                -0.173952744937     -0.099273788239     -0.273226533177    -76.339233127258
 DF-MP2-F12/3*C(DX,FIX)                -0.199204790971     -0.102293852743     -0.301498643715    -76.367505237796
 DF-MP2-F12/3*C(FIX)                   -0.197409972440     -0.102003849902     -0.299413822342    -76.365420416424
 DF-MP2-F12/3C(FIX)                    -0.197334276619     -0.102100064473     -0.299434341092    -76.365440935173

 SCS-DF-MP2 energies (F_SING= 1.20000  F_TRIP= 0.62222  F_PARALLEL= 0.33333):
 ============================================================================
 SCS-DF-MP2                            -0.270513651052    -76.336520245133
 SCS-DF-MP2-F12/3*C(DX,FIX)            -0.302695257539    -76.368701851621
 SCS-DF-MP2-F12/3*C(FIX)               -0.300361029089    -76.366367623171
 SCS-DF-MP2-F12/3C(FIX)                -0.300330060949    -76.366336655030

 Symmetry restored.
 Symmetry transformation completed.

 Number of N-1 electron functions:               4
 Number of N-2 electron functions:              10
 Number of singly external CSFs:               198
 Number of doubly external CSFs:             29292
 Total number of CSFs:                       29491

 Length of J-op  integral file:               8.97 MB
 Length of K-op  integral file:              13.62 MB
 Length of 3-ext integral record:             0.00 MB

 Memory could be reduced to 2.37 Mwords without degradation in triples

 Integral transformation finished. Total CPU:   0.05 sec, npass=  1  Memory used:   0.62 MW

 Reference energy:                    -76.06600659

 Adding F12 terms to K(Cij), methodcc=6,  factor= 1.0

 ITER.      SQ.NORM     CORR.ENERGY   TOTAL ENERGY   ENERGY CHANGE        DEN1      VAR(S)    VAR(P)  DIIS     TIME  TIME/IT
   1      1.06155906    -0.27354814   -76.33955473    -0.00027904     0.00550965  0.72D-03  0.96D-03  1  1     2.44     0.06
   2      1.06477605    -0.27328230   -76.33928889     0.00026584    -0.00452211  0.13D-04  0.10D-03  2  2     2.48     0.06
   3      1.06589934    -0.27340717   -76.33941377    -0.00012488    -0.00077923  0.84D-05  0.65D-05  3  3     2.54     0.06
   4      1.06640907    -0.27342823   -76.33943483    -0.00002106    -0.00034021  0.41D-06  0.51D-06  4  4     2.59     0.06
   5      1.06649571    -0.27342668   -76.33943328     0.00000155    -0.00001890  0.12D-06  0.31D-07  5  5     2.64     0.06
   6      1.06651910    -0.27342543   -76.33943202     0.00000126    -0.00000389  0.10D-07  0.31D-08  6  6     2.70     0.06
   7      1.06652512    -0.27342506   -76.33943165     0.00000037    -0.00000138  0.86D-09  0.24D-09  6  1     2.75     0.06
   8      1.06652650    -0.27342512   -76.33943171    -0.00000006    -0.00000001  0.65D-10  0.25D-10  6  2     2.81     0.06

 Norm of t1 vector:      0.03505064      S-energy:    -0.00000011      T1 diagnostic:  0.00876266
                                                                       D1 diagnostic:  0.01752244

 Adding energy correction from Wij-K(Fij), methodcc=6  factor= 1.0
 
  CCSD correlation energy              -0.273425115542
  MP2-F12 correction (uncoupled)       -0.025084888473
  C*T doubles correction               -0.000842384528
  f12b correction                       0.004274153765


 Total CPU time for triples:      0.24 sec


 RESULTS
 =======

  Reference energy                    -76.065002140863
  F12 singles correction               -0.001004453218

 F12 singles corrections added to reference energy

  New reference energy                -76.066006594081

  F12a singlet correction              -0.023207093414
  F12a triplet correction              -0.002720179588
  F12a total correction                -0.025927273002

 F12a corrections for ansatz F12/3C(FIX) added to CCSD energy
 
  CCSD-F12a singlet pair energy        -0.208605109396
  CCSD-F12a triplet pair energy        -0.090747173381
  CCSD-F12a correlation energy         -0.299352388544

  Triples (T) contribution             -0.008737898895
  Total correlation energy             -0.308090287439

  CCSD-F12a total energy              -76.365358982625
  CCSD[T]-F12a energy                 -76.374389487120
  CCSD-T-F12a energy                  -76.373969431146
 !CCSD(T)-F12a total energy           -76.374096881520

 F12b corrections for ansatz F12/3C(FIX) added to CCSD(T)-F12a energy

  CCSD-F12b singlet pair energy        -0.204642433614
  CCSD-F12b triplet pair energy        -0.090435695397
  CCSD-F12b correlation energy         -0.295078234779

  Triples (T) contribution             -0.008737898895
  Total correlation energy             -0.303816133674

  CCSD-F12b total energy              -76.361084828860
  CCSD[T]-F12b energy                 -76.370115333355
  CCSD-T-F12b energy                  -76.369695277381
 !CCSD(T)-F12b total energy           -76.369822727755

 Timing summary (sec):

 STEP                 CPU(USER)    SYS     CPU(TOT)    WALL
 Transformation          0.05      0.02      0.07      0.08
 CCSD iterations         0.46      0.09      0.55      0.56
 Triples                 0.24      0.02      0.26      0.26
 MP2-F12                 2.30      0.04      2.34      2.34
 F12b energy             0.05      0.00      0.05      0.05

 Program statistics:

 Available memory in ccsd:                49999786
 Min. memory needed in ccsd:                145972
 Max. memory used in ccsd:                  166319
 Max. memory used in cckext:                248663 ( 9 integral passes)



 **********************************************************************************************************************************
 DATASETS  * FILE   NREC   LENGTH (MB)   RECORD NAMES
              1      20       56.27       500      610      700      900      950      970     1000      129      960     1100   
                                          VAR    BASINP    GEOM    SYMINP    ZMAT    AOBASIS   BASIS     P2S    ABASIS      S 
                                         1400     1410     1200     1210     1080     1600     1650     1300     1700     1380   
                                           T        V       H0       H01     AOSYM     SMH    MOLCAS    ERIS     OPER     JKOP   

              2       6        2.97       700     1000      520     2100     7360     7350   
                                         GEOM     BASIS   MCVARS     RHF    F12ABS    EF12   

 PROGRAMS   *        TOTAL   CCSD(T)        HF       INT
 CPU TIMES  *         4.01      3.13      0.26      0.54
 REAL TIME  *         4.47 SEC
 DISK USED  *       124.76 MB      
 **********************************************************************************************************************************

 CCSD(T)-F12/cc-pVTZ-F12 energy=    -76.369822727755

     CCSD(T)-F12        HF-SCF  
    -76.36982273    -76.06500214
 **********************************************************************************************************************************
 Molpro calculation terminated
 Variable memory released
