
 Primary working directories    : /tmp/r2518/29449.maple
 Secondary working directories  : /tmp/r2518/29449.maple
 Wavefunction directory         : /ddn/home1/r2518/wfu/
 Main file repository           : /tmp/r2518/29449.maple/

 SHA1      : d5ffa45e93fdbca01ffc919aa182cfdae0147319
 NAME      : 2015.1.35
 ARCHNAME  : linux/x86_64
 FC        : /opt/intel/composer_xe_2015.1.133/bin/intel64/ifort
 BLASLIB   : -Wl,-_start-group /opt/intel/mkl/lib/intel64/libmkl_intel_ilp64.a /opt/intel/mkl/lib/intel64/libmkl_intel_thread.a /opt/intel/mkl/lib/intel64/libmkl_core.a -Wl,-_end-group
 id        : olemiss

 Nodes     nprocs
 cn071        1

 Using customized tuning parameters: mindgm=1; mindgv=20; mindgc=4; mindgr=1; noblas=0; minvec=7
 default implementation of scratch files=df  

 memory,50,m
 nocompress;
 geomtyp=xyz
 angstrom
 geometry={
 O,0.0,0.005,-0.0657441568
 H,0.0,0.7574590974,0.5217905143
 H,0.0,-0.7574590974,0.5217905143
 }
 basis=cc-pVTZ-F12
 set,charge=0
 set,spin=0
 hf
 {CCSD(T)-F12}

 Variables initialized (889), CPU time= 0.00 sec
 Commands  initialized (702), CPU time= 0.01 sec, 572 directives.
 Default parameters read. Elapsed time= 0.05 sec

 Checking input...
 Passed
1


                                         ***  PROGRAM SYSTEM MOLPRO  ***
                                       Copyright, TTI GmbH Stuttgart, 2015
                                    Version 2015.1 linked Jul  9 2018 13:16:40


 **********************************************************************************************************************************
 LABEL *                                                                                 
  64 bit serial version                                                                  DATE: 11-Sep-19          TIME: 13:35:00  
 **********************************************************************************************************************************

 SHA1:             d5ffa45e93fdbca01ffc919aa182cfdae0147319
 **********************************************************************************************************************************

 Input parameters for SORTINT:

 COMPRESS =    0.000000
 C_FINAL  =    1.000000
 DEBUG    =   -1.000000
 C_SORT1  =    0.000000
 C_SEWARD =    0.000000
 THRESH   =    0.000000
 IO       =  molpro                                                          
 SPRI     =    0.000000
 SETTING GEOMTYP        =    XYZ
 ZUNIT=ANG
 

 Variable memory set to   50000000 words,  buffer space   230000 words

 SETTING BASIS          =    CC-PVTZ-F12
 SETTING CHARGE         =     0.00000000D+00                                  
 SETTING SPIN           =     0.00000000D+00                                  


 Recomputing integrals since basis changed


 Using spherical harmonics

 Library entry O      S cc-pVTZ-F12          selected for orbital group  1
 Library entry O      P cc-pVTZ-F12          selected for orbital group  1
 Library entry O      D cc-pVTZ-F12          selected for orbital group  1
 Library entry O      F cc-pVTZ-F12          selected for orbital group  1
 Library entry H      S cc-pVTZ-F12          selected for orbital group  2
 Library entry H      P cc-pVTZ-F12          selected for orbital group  2
 Library entry H      D cc-pVTZ-F12          selected for orbital group  2


 PROGRAM * SEWARD (Integral evaluation for generally contracted gaussian basis sets)     Author: Roland Lindh, 1990

 Geometry written to block  1 of record 700


 Point group  Cs  



 ATOMIC COORDINATES

 NR  ATOM    CHARGE       X              Y              Z

   1  O       8.00    0.000000000    0.009448631   -0.124238451
   2  H       1.00    0.000000000    1.431390245    0.986041166
   3  H       1.00    0.000000000   -1.431390245    0.986041166

 Bond lengths in Bohr (Angstrom)

 1-2  1.804061746  1-3  1.818993538
     ( 0.954668363)     ( 0.962569927)

 Bond angles

  2-1-3  104.39951328

 NUCLEAR CHARGE:                   10
 NUMBER OF PRIMITIVE AOS:         114
 NUMBER OF SYMMETRY AOS:          103
 NUMBER OF CONTRACTIONS:           89   (  61A'  +  28A"  )
 NUMBER OF CORE ORBITALS:           1   (   1A'  +   0A"  )
 NUMBER OF VALENCE ORBITALS:        6   (   5A'  +   1A"  )


 NUCLEAR REPULSION ENERGY    9.18178529

 Eigenvalues of metric

         1 0.215E-03 0.451E-03 0.574E-03 0.711E-03 0.795E-03 0.158E-02 0.202E-02 0.215E-02
         2 0.691E-03 0.840E-02 0.999E-02 0.438E-01 0.839E-01 0.891E-01 0.128E+00 0.190E+00


 Contracted 2-electron integrals neglected if value below      1.0D-11

        3628461. INTEGRALS WRITTEN OUT IN     887 BLOCKS ON RECORD 1290 OF FILE 1


 NUMBER OF SORTED TWO-ELECTRON INTEGRALS:    4174745.     BUFFER LENGTH:  32768
 NUMBER OF SEGMENTS:   1  SEGMENT LENGTH:    4174745      RECORD LENGTH: 524288

 Memory used in sort:       4.73 MW

 SORT1 READ     3628461. AND WROTE     3690185. INTEGRALS IN     11 RECORDS. CPU TIME:     0.11 SEC, REAL TIME:     0.14 SEC
 SORT2 READ     3690185. AND WROTE     4174745. INTEGRALS IN      1 RECORDS. CPU TIME:     0.08 SEC, REAL TIME:     0.12 SEC

 FILE SIZES:   FILE 1:    78.3 MBYTE,  FILE 4:    46.2 MBYTE,   TOTAL:    124.4 MBYTE

 OPERATOR DM      FOR CENTER  0  COORDINATES:    0.000000    0.000000    0.000000


 **********************************************************************************************************************************
 DATASETS  * FILE   NREC   LENGTH (MB)   RECORD NAMES
              1      19       50.78       500      610      700      900      950      970     1000      129      960     1100   
                                          VAR    BASINP    GEOM    SYMINP    ZMAT    AOBASIS   BASIS     P2S    ABASIS      S 
                                         1400     1410     1200     1210     1080     1600     1650     1300     1700   
                                           T        V       H0       H01     AOSYM     SMH    MOLCAS    ERIS     OPER   

 PROGRAMS   *        TOTAL       INT
 CPU TIMES  *         0.64      0.55
 REAL TIME  *         1.31 SEC
 DISK USED  *       124.76 MB      
 **********************************************************************************************************************************


 PROGRAM * RHF-SCF (CLOSED SHELL)       Authors: W. Meyer, H.-J. Werner


 NUMBER OF ELECTRONS:       5+    5-
 CONVERGENCE THRESHOLDS:    1.00E-05 (Density)    1.00E-07 (Energy)
 MAX. NUMBER OF ITERATIONS:       60
 INTERPOLATION TYPE:            DIIS
 INTERPOLATION STEPS:              2 (START)      1 (STEP)
 LEVEL SHIFTS:                  0.00 (CLOSED)  0.00 (OPEN) 



 Orbital guess generated from atomic densities. Full valence occupancy:    6   1

 Molecular orbital dump at record        2100.2

 Initial occupancy:   4   1

 ITERATION    DDIFF          GRAD             ENERGY        2-EL.EN.            DIPOLE MOMENTS         DIIS   ORB.
    1      0.000D+00      0.000D+00       -76.02696531     77.658858    0.00000   -0.01220    1.13624    0    start
    2      0.000D+00      0.136D-01       -76.05391493     74.074041    0.00000   -0.00475    0.67658    1    diag
    3      0.147D-01      0.848D-02       -76.06491643     75.652071    0.00000   -0.00608    0.79035    2    diag
    4      0.505D-02      0.802D-03       -76.06510102     75.561051    0.00000   -0.00558    0.78677    3    diag
    5      0.734D-03      0.217D-03       -76.06511947     75.575018    0.00000   -0.00538    0.78548    4    diag
    6      0.255D-03      0.415D-04       -76.06512057     75.574104    0.00000   -0.00532    0.78521    5    diag
    7      0.721D-04      0.813D-05       -76.06512062     75.574246    0.00000   -0.00530    0.78510    6    diag
    8      0.153D-04      0.162D-05       -76.06512062     75.574237    0.00000   -0.00530    0.78506    7    diag
    9      0.285D-05      0.203D-06       -76.06512062     75.574224    0.00000   -0.00530    0.78506    0    orth

 Final occupancy:   4   1

 !RHF STATE 1.1 Energy                -76.065120623733
 Nuclear energy                         9.18178529
 One-electron energy                 -123.03401805
 Two-electron energy                   37.78711214
 Virial quotient                       -1.00099469
 !RHF STATE 1.1 Dipole moment           0.00000000    -0.00530003     0.78505796
 Dipole moment /Debye                   0.00000000    -0.01347046     1.99528760

 Orbital energies:

         1.1          2.1          3.1          4.1          5.1          6.1
    -20.565184    -1.352357    -0.716939    -0.584978     0.101823     0.120731

         1.2          2.2          3.2
     -0.510440     0.145269     0.481020

 HOMO      1.2    -0.510440 =     -13.8898eV
 LUMO      5.1     0.101823 =       2.7708eV
 LUMO-HOMO         0.612263 =      16.6605eV


 **********************************************************************************************************************************
 DATASETS  * FILE   NREC   LENGTH (MB)   RECORD NAMES
              1      19       50.78       500      610      700      900      950      970     1000      129      960     1100   
                                          VAR    BASINP    GEOM    SYMINP    ZMAT    AOBASIS   BASIS     P2S    ABASIS      S 
                                         1400     1410     1200     1210     1080     1600     1650     1300     1700   
                                           T        V       H0       H01     AOSYM     SMH    MOLCAS    ERIS     OPER   

              2       4        2.88       700     1000      520     2100   
                                         GEOM     BASIS   MCVARS     RHF  

 PROGRAMS   *        TOTAL        HF       INT
 CPU TIMES  *         0.90      0.26      0.55
 REAL TIME  *         1.65 SEC
 DISK USED  *       124.76 MB      
 **********************************************************************************************************************************


 PROGRAM * CCSD (Closed-shell coupled cluster)     Authors: C. Hampel, H.-J. Werner, 1991, M. Deegan, P.J. Knowles, 1992

                                  CCSD-F12 implementation by  H.-J. Werner, 2007

                   Density fitting integral evaluation by F.R. Manby, 2003,2007, G. Knizia, 2010

 Basis set AUG-CC-PVTZ/JKFIT generated.  Number of basis functions:   196 
 Basis set CC-PVTZ-F12/OPTRI generated.  Number of basis functions:   157 
 Basis set AUG-CC-PVTZ/MP2FIT generated. Number of basis functions:   198 

 Convergence thresholds:  THRVAR = 1.00D-08  THRDEN = 1.00D-06

 CCSD(T)     terms to be evaluated (factor= 1.000)


 Number of core orbitals:           1 (   1   0 )
 Number of closed-shell orbitals:   4 (   3   1 )
 Number of external orbitals:      84 (  57  27 )

 Molecular orbitals read from record     2100.2  Type=RHF/CANONICAL (state 1.1)

 MP2-F12 correlation treatment (H.-J. Werner, 2006)
 ==================================================

 Using MP2-F12 with ansatz 3C(FIX)

 Using projected zeroth-order Hamiltonian (+Z)

 FOCKRIB=T FOCKRIC=T FOCKRIP=T CABSP=T CABSA=T CABSK=T CABSF=T GBC=F EBC=F DMAT=T NOFIK=T NOPAO=1 SOLVE=-1  USEPAO=0
 EXCH_A= T EXCH_B= F EXCH_C= F EXCH_P= F
 
 Geminal basis:    OPTFULL  GEM_TYPE=SLATER  BETA=1.0  NGEM=6

 Optimizing Gaussian exponents for each gem_beta

 Geminal optimization for beta= 1.0000
 Weight function:   m=0, omega= 1.4646

 Augmented Hessian optimization of geminal fit. Trust ratio= 0.40000
 Convergence reached after   2 iterations. Final gradient= 8.41D-16, Step= 4.29D-06, Delta= 1.28D-09
 
 Alpha:                 0.19532     0.81920     2.85917     9.50073    35.69989   197.79328
 Coeff:                 0.27070     0.30552     0.18297     0.10986     0.06810     0.04224
 

 Symmetry turned off. Reference energy:        -76.065120623733

 All pairs explicitly correlated. Number of r12-pairs:           10

 Excluding core orbitals from MO domains
 
 AO(A)-basis ORBITAL           loaded. Number of functions:      89
 RI(R)-basis CC-PVTZ-F12/OPTRI loaded. Number of functions:     157
 DF-basis AUG-CC-PVTZ/JKFIT    loaded. Number of functions:     196

 Screening thresholds:   THRAO=  1.00D-10  THRMO=  1.00D-09  THRPROD=  1.00D-09
                         THRSW=  1.00D-05  THROV=  1.00D-12  THRAOF12=   1.00D-08

 CPU time for Fock operators                      1.02 sec
 
 Construction of ABS:
 Smallest eigenvalue of S          7.81E-04  (threshold= 1.00E-08)
 Ratio eigmin/eigmax               1.30E-04  (threshold= 1.00E-09)
 Smallest eigenvalue of S kept     7.81E-04  (threshold= 7.81E-04, 0 functions deleted, 157 kept)
 
 Construction of CABS:
 Smallest eigenvalue of S          1.86E-06  (threshold= 1.00E-08)
 Ratio eigmin/eigmax               1.86E-06  (threshold= 1.00E-09)
 Smallest eigenvalue of S kept     1.86E-06  (threshold= 1.86E-06, 0 functions deleted, 157 kept)
 
 CPU time for CABS singles                        0.01 sec

 CABS-singles contribution of  -0.00100844 patched into reference energy.
 New reference energy         -76.06612906
 
 AO(A)-basis ORBITAL           loaded. Number of functions:      89
 RI(R)-basis CC-PVTZ-F12/OPTRI loaded. Number of functions:     157
 DF-basis AUG-CC-PVTZ/MP2FIT   loaded. Number of functions:     198

 Screening thresholds:   THRAO=  1.00D-10  THRMO=  1.00D-09  THRPROD=  1.00D-09
                         THRSW=  1.00D-05  THROV=  1.00D-12  THRAOF12=   1.00D-08

 CPU time for 3-index integral evaluation         0.51 sec
 CPU time for first  half transformation          0.02 sec ( 8818.0 MFLOP/sec)
 CPU time for sorting                             0.01 sec
 CPU time for fitting                             0.01 sec ( 8185.8 MFLOP/sec)
 CPU time for assembly                            0.03 sec (17837.5 MFLOP/sec)
 CPU time for tranop_f12                          0.02 sec (32596.5 MFLOP/sec)
 CPU time for f12 integrals (total)               1.46 sec, Elapsed time:      1.49 sec
 CPU time for f12 matrices (total)                0.02 sec, Elapsed time:      0.01 sec

 Diagonal F12 approximation with fixed coefficients:  TSING= 0.500,  TTRIP= 0.250 (scaled by -1/beta)

 DF-MP2-F12 energy corrections:
 ==============================
 Approx.                                    Singlet             Triplet             Total
 DF-MP2-F12/3*C(DX,FIX)                -0.025262827739     -0.003022189560     -0.028285017298
 DF-MP2-F12/3*C(FIX)                   -0.023464753218     -0.002731600193     -0.026196353411
 DF-MP2-F12/3C(FIX)                    -0.023388819028     -0.002827825961     -0.026216644988

 DF-MP2-F12 correlation energies:
 ================================
 Approx.                                    Singlet             Triplet             Ecorr            Total Energy
 DF-MP2                                -0.173856184583     -0.099225511630     -0.273081696213    -76.339210759663
 DF-MP2-F12/3*C(DX,FIX)                -0.199119012321     -0.102247701190     -0.301366713511    -76.367495776961
 DF-MP2-F12/3*C(FIX)                   -0.197320937801     -0.101957111823     -0.299278049624    -76.365407113074
 DF-MP2-F12/3C(FIX)                    -0.197245003610     -0.102053337591     -0.299298341201    -76.365427404652

 SCS-DF-MP2 energies (F_SING= 1.20000  F_TRIP= 0.62222  F_PARALLEL= 0.33333):
 ============================================================================
 SCS-DF-MP2                            -0.270367739847    -76.336496803297
 SCS-DF-MP2-F12/3*C(DX,FIX)            -0.302563606637    -76.368692670087
 SCS-DF-MP2-F12/3*C(FIX)               -0.300225106051    -76.366354169501
 SCS-DF-MP2-F12/3C(FIX)                -0.300193858833    -76.366322922284

 Symmetry restored.
 Symmetry transformation completed.

 Number of N-1 electron functions:               4
 Number of N-2 electron functions:              10
 Number of singly external CSFs:               198
 Number of doubly external CSFs:             29292
 Total number of CSFs:                       29491

 Length of J-op  integral file:               8.97 MB
 Length of K-op  integral file:              13.62 MB
 Length of 3-ext integral record:             0.00 MB

 Memory could be reduced to 2.37 Mwords without degradation in triples

 Integral transformation finished. Total CPU:   0.07 sec, npass=  1  Memory used:   0.62 MW

 Reference energy:                    -76.06612906

 Adding F12 terms to K(Cij), methodcc=6,  factor= 1.0

 ITER.      SQ.NORM     CORR.ENERGY   TOTAL ENERGY   ENERGY CHANGE        DEN1      VAR(S)    VAR(P)  DIIS     TIME  TIME/IT
   1      1.06144235    -0.27342246   -76.33955153    -0.00029826     0.00546929  0.72D-03  0.95D-03  1  1     2.82     0.07
   2      1.06464126    -0.27315545   -76.33928451     0.00026702    -0.00450574  0.12D-04  0.10D-03  2  2     2.88     0.07
   3      1.06575524    -0.27327928   -76.33940835    -0.00012384    -0.00077477  0.84D-05  0.64D-05  3  3     2.95     0.07
   4      1.06626023    -0.27330020   -76.33942927    -0.00002092    -0.00033780  0.41D-06  0.50D-06  4  4     3.02     0.07
   5      1.06634603    -0.27329865   -76.33942772     0.00000155    -0.00001870  0.12D-06  0.31D-07  5  5     3.07     0.07
   6      1.06636919    -0.27329740   -76.33942646     0.00000125    -0.00000384  0.99D-08  0.31D-08  6  6     3.14     0.07
   7      1.06637515    -0.27329703   -76.33942610     0.00000037    -0.00000137  0.85D-09  0.23D-09  6  1     3.20     0.07
   8      1.06637652    -0.27329709   -76.33942616    -0.00000006    -0.00000001  0.64D-10  0.25D-10  6  2     3.25     0.07

 Norm of t1 vector:      0.03493476      S-energy:    -0.00000010      T1 diagnostic:  0.00873369
                                                                       D1 diagnostic:  0.01745921

 Adding energy correction from Wij-K(Fij), methodcc=6  factor= 1.0
 
  CCSD correlation energy              -0.273297091868
  MP2-F12 correction (uncoupled)       -0.025094191293
  C*T doubles correction               -0.000842475196
  f12b correction                       0.004273037721


 Total CPU time for triples:      0.25 sec


 RESULTS
 =======

  Reference energy                    -76.065120623733
  F12 singles correction               -0.001008439717

 F12 singles corrections added to reference energy

  New reference energy                -76.066129063450

  F12a singlet correction              -0.023214928396
  F12a triplet correction              -0.002721738092
  F12a total correction                -0.025936666488

 F12a corrections for ansatz F12/3C(FIX) added to CCSD energy
 
  CCSD-F12a singlet pair energy        -0.208495826878
  CCSD-F12a triplet pair energy        -0.090737827083
  CCSD-F12a correlation energy         -0.299233758356

  Triples (T) contribution             -0.008719173799
  Total correlation energy             -0.307952932155

  CCSD-F12a total energy              -76.365362821806
  CCSD[T]-F12a energy                 -76.374373085088
  CCSD-T-F12a energy                  -76.373955275290
 !CCSD(T)-F12a total energy           -76.374081995606

 F12b corrections for ansatz F12/3C(FIX) added to CCSD(T)-F12a energy

  CCSD-F12b singlet pair energy        -0.204534355496
  CCSD-F12b triplet pair energy        -0.090426260745
  CCSD-F12b correlation energy         -0.294960720635

  Triples (T) contribution             -0.008719173799
  Total correlation energy             -0.303679894435

  CCSD-F12b total energy              -76.361089784085
  CCSD[T]-F12b energy                 -76.370100047367
  CCSD-T-F12b energy                  -76.369682237570
 !CCSD(T)-F12b total energy           -76.369808957885

 Timing summary (sec):

 STEP                 CPU(USER)    SYS     CPU(TOT)    WALL
 Transformation          0.08      0.00      0.08      0.09
 CCSD iterations         0.53      0.07      0.60      0.61
 Triples                 0.25      0.01      0.26      0.26
 MP2-F12                 2.64      0.05      2.69      2.69
 F12b energy             0.05      0.01      0.06      0.05

 Program statistics:

 Available memory in ccsd:                49999786
 Min. memory needed in ccsd:                145972
 Max. memory used in ccsd:                  166319
 Max. memory used in cckext:                248663 ( 9 integral passes)



 **********************************************************************************************************************************
 DATASETS  * FILE   NREC   LENGTH (MB)   RECORD NAMES
              1      20       56.28       500      610      700      900      950      970     1000      129      960     1100   
                                          VAR    BASINP    GEOM    SYMINP    ZMAT    AOBASIS   BASIS     P2S    ABASIS      S 
                                         1400     1410     1200     1210     1080     1600     1650     1300     1700     1380   
                                           T        V       H0       H01     AOSYM     SMH    MOLCAS    ERIS     OPER     JKOP   

              2       6        2.97       700     1000      520     2100     7360     7350   
                                         GEOM     BASIS   MCVARS     RHF    F12ABS    EF12   

 PROGRAMS   *        TOTAL   CCSD(T)        HF       INT
 CPU TIMES  *         4.48      3.58      0.26      0.55
 REAL TIME  *         5.74 SEC
 DISK USED  *       124.76 MB      
 **********************************************************************************************************************************

 CCSD(T)-F12/cc-pVTZ-F12 energy=    -76.369808957885

     CCSD(T)-F12        HF-SCF  
    -76.36980896    -76.06512062
 **********************************************************************************************************************************
 Molpro calculation terminated
 Variable memory released
