
 Primary working directories    : /tmp/r2518/29448.maple
 Secondary working directories  : /tmp/r2518/29448.maple
 Wavefunction directory         : /ddn/home1/r2518/wfu/
 Main file repository           : /tmp/r2518/29448.maple/

 SHA1      : d5ffa45e93fdbca01ffc919aa182cfdae0147319
 NAME      : 2015.1.35
 ARCHNAME  : linux/x86_64
 FC        : /opt/intel/composer_xe_2015.1.133/bin/intel64/ifort
 BLASLIB   : -Wl,-_start-group /opt/intel/mkl/lib/intel64/libmkl_intel_ilp64.a /opt/intel/mkl/lib/intel64/libmkl_intel_thread.a /opt/intel/mkl/lib/intel64/libmkl_core.a -Wl,-_end-group
 id        : olemiss

 Nodes     nprocs
 cn071        1

 Using customized tuning parameters: mindgm=1; mindgv=20; mindgc=4; mindgr=1; noblas=0; minvec=7
 default implementation of scratch files=df  

 memory,50,m
 nocompress;
 geomtyp=xyz
 angstrom
 geometry={
 O,-0.005,0.0,-0.0657441568
 H,0.0,0.7574590974,0.5217905143
 H,0.0,-0.7574590974,0.5217905143
 }
 basis=cc-pVTZ-F12
 set,charge=0
 set,spin=0
 hf
 {CCSD(T)-F12}

 Variables initialized (889), CPU time= 0.01 sec
 Commands  initialized (702), CPU time= 0.00 sec, 572 directives.
 Default parameters read. Elapsed time= 0.05 sec

 Checking input...
 Passed
1


                                         ***  PROGRAM SYSTEM MOLPRO  ***
                                       Copyright, TTI GmbH Stuttgart, 2015
                                    Version 2015.1 linked Jul  9 2018 13:16:40


 **********************************************************************************************************************************
 LABEL *                                                                                 
  64 bit serial version                                                                  DATE: 11-Sep-19          TIME: 13:35:00  
 **********************************************************************************************************************************

 SHA1:             d5ffa45e93fdbca01ffc919aa182cfdae0147319
 **********************************************************************************************************************************

 Input parameters for SORTINT:

 COMPRESS =    0.000000
 C_FINAL  =    1.000000
 DEBUG    =   -1.000000
 C_SORT1  =    0.000000
 C_SEWARD =    0.000000
 THRESH   =    0.000000
 IO       =  molpro                                                          
 SPRI     =    0.000000
 SETTING GEOMTYP        =    XYZ
 ZUNIT=ANG
 

 Variable memory set to   50000000 words,  buffer space   230000 words

 SETTING BASIS          =    CC-PVTZ-F12
 SETTING CHARGE         =     0.00000000D+00                                  
 SETTING SPIN           =     0.00000000D+00                                  


 Recomputing integrals since basis changed


 Using spherical harmonics

 Library entry O      S cc-pVTZ-F12          selected for orbital group  1
 Library entry O      P cc-pVTZ-F12          selected for orbital group  1
 Library entry O      D cc-pVTZ-F12          selected for orbital group  1
 Library entry O      F cc-pVTZ-F12          selected for orbital group  1
 Library entry H      S cc-pVTZ-F12          selected for orbital group  2
 Library entry H      P cc-pVTZ-F12          selected for orbital group  2
 Library entry H      D cc-pVTZ-F12          selected for orbital group  2


 PROGRAM * SEWARD (Integral evaluation for generally contracted gaussian basis sets)     Author: Roland Lindh, 1990

 Geometry written to block  1 of record 700


 Point group  Cs  



 ATOMIC COORDINATES

 NR  ATOM    CHARGE       X              Y              Z

   1  O       8.00   -0.009448631    0.000000000   -0.124238451
   2  H       1.00    0.000000000    1.431390245    0.986041166
   3  H       1.00    0.000000000   -1.431390245    0.986041166

 Bond lengths in Bohr (Angstrom)

 1-2  1.811543027  1-3  1.811543027
     ( 0.958627286)     ( 0.958627286)

 Bond angles

  2-1-3  104.39901356

 NUCLEAR CHARGE:                   10
 NUMBER OF PRIMITIVE AOS:         114
 NUMBER OF SYMMETRY AOS:          103
 NUMBER OF CONTRACTIONS:           89   (  53A'  +  36A"  )
 NUMBER OF CORE ORBITALS:           1   (   1A'  +   0A"  )
 NUMBER OF VALENCE ORBITALS:        6   (   4A'  +   2A"  )


 NUCLEAR REPULSION ENERGY    9.18156026

 Eigenvalues of metric

         1 0.215E-03 0.574E-03 0.691E-03 0.711E-03 0.158E-02 0.215E-02 0.396E-02 0.739E-02
         2 0.451E-03 0.795E-03 0.202E-02 0.438E-02 0.842E-02 0.867E-02 0.137E-01 0.174E-01


 Contracted 2-electron integrals neglected if value below      1.0D-11

        3529726. INTEGRALS WRITTEN OUT IN     862 BLOCKS ON RECORD 1290 OF FILE 1


 NUMBER OF SORTED TWO-ELECTRON INTEGRALS:    4105845.     BUFFER LENGTH:  32768
 NUMBER OF SEGMENTS:   1  SEGMENT LENGTH:    4105845      RECORD LENGTH: 524288

 Memory used in sort:       4.66 MW

 SORT1 READ     3529726. AND WROTE     3598724. INTEGRALS IN     11 RECORDS. CPU TIME:     0.10 SEC, REAL TIME:     0.15 SEC
 SORT2 READ     3598724. AND WROTE     4105845. INTEGRALS IN      1 RECORDS. CPU TIME:     0.09 SEC, REAL TIME:     0.10 SEC

 FILE SIZES:   FILE 1:    76.6 MBYTE,  FILE 4:    46.2 MBYTE,   TOTAL:    122.8 MBYTE

 OPERATOR DM      FOR CENTER  0  COORDINATES:    0.000000    0.000000    0.000000


 **********************************************************************************************************************************
 DATASETS  * FILE   NREC   LENGTH (MB)   RECORD NAMES
              1      19       49.94       500      610      700      900      950      970     1000      129      960     1100   
                                          VAR    BASINP    GEOM    SYMINP    ZMAT    AOBASIS   BASIS     P2S    ABASIS      S 
                                         1400     1410     1200     1210     1080     1600     1650     1300     1700   
                                           T        V       H0       H01     AOSYM     SMH    MOLCAS    ERIS     OPER   

 PROGRAMS   *        TOTAL       INT
 CPU TIMES  *         0.54      0.45
 REAL TIME  *         0.87 SEC
 DISK USED  *       123.10 MB      
 **********************************************************************************************************************************


 PROGRAM * RHF-SCF (CLOSED SHELL)       Authors: W. Meyer, H.-J. Werner


 NUMBER OF ELECTRONS:       5+    5-
 CONVERGENCE THRESHOLDS:    1.00E-05 (Density)    1.00E-07 (Energy)
 MAX. NUMBER OF ITERATIONS:       60
 INTERPOLATION TYPE:            DIIS
 INTERPOLATION STEPS:              2 (START)      1 (STEP)
 LEVEL SHIFTS:                  0.00 (CLOSED)  0.00 (OPEN) 



 Orbital guess generated from atomic densities. Full valence occupancy:    5   2

 Molecular orbital dump at record        2100.2

 Initial occupancy:   4   1

 ITERATION    DDIFF          GRAD             ENERGY        2-EL.EN.            DIPOLE MOMENTS         DIIS   ORB.
    1      0.000D+00      0.000D+00       -76.02700030     77.658334    0.00967    0.00000    1.13623    0    start
    2      0.000D+00      0.143D-01       -76.05394704     74.073846    0.00576    0.00000    0.67657    1    diag
    3      0.155D-01      0.891D-02       -76.06494687     75.651777    0.00673    0.00000    0.79034    2    diag
    4      0.529D-02      0.842D-03       -76.06513137     75.560748    0.00670    0.00000    0.78676    3    diag
    5      0.771D-03      0.228D-03       -76.06514981     75.574716    0.00668    0.00000    0.78547    4    diag
    6      0.270D-03      0.436D-04       -76.06515090     75.573802    0.00668    0.00000    0.78520    5    diag
    7      0.761D-04      0.853D-05       -76.06515096     75.573944    0.00668    0.00000    0.78509    6    diag
    8      0.161D-04      0.170D-05       -76.06515096     75.573935    0.00668    0.00000    0.78505    7    diag
    9      0.299D-05      0.213D-06       -76.06515096     75.573922    0.00668    0.00000    0.78505    0    orth

 Final occupancy:   4   1

 !RHF STATE 1.1 Energy                -76.065150957266
 Nuclear energy                         9.18156026
 One-electron energy                 -123.03367241
 Two-electron energy                   37.78696120
 Virial quotient                       -1.00099694
 !RHF STATE 1.1 Dipole moment           0.00668085     0.00000000     0.78504653
 Dipole moment /Debye                   0.01697992     0.00000000     1.99525857

 Orbital energies:

         1.1          2.1          3.1          4.1          5.1          6.1
    -20.565189    -1.352338    -0.584983    -0.510438     0.101828     0.144892

         1.2          2.2          3.2
     -0.716928     0.120732     0.225740

 HOMO      4.1    -0.510438 =     -13.8897eV
 LUMO      5.1     0.101828 =       2.7709eV
 LUMO-HOMO         0.612266 =      16.6606eV


 **********************************************************************************************************************************
 DATASETS  * FILE   NREC   LENGTH (MB)   RECORD NAMES
              1      19       49.94       500      610      700      900      950      970     1000      129      960     1100   
                                          VAR    BASINP    GEOM    SYMINP    ZMAT    AOBASIS   BASIS     P2S    ABASIS      S 
                                         1400     1410     1200     1210     1080     1600     1650     1300     1700   
                                           T        V       H0       H01     AOSYM     SMH    MOLCAS    ERIS     OPER   

              2       4        2.87       700     1000      520     2100   
                                         GEOM     BASIS   MCVARS     RHF  

 PROGRAMS   *        TOTAL        HF       INT
 CPU TIMES  *         0.75      0.21      0.45
 REAL TIME  *         1.40 SEC
 DISK USED  *       123.10 MB      
 **********************************************************************************************************************************


 PROGRAM * CCSD (Closed-shell coupled cluster)     Authors: C. Hampel, H.-J. Werner, 1991, M. Deegan, P.J. Knowles, 1992

                                  CCSD-F12 implementation by  H.-J. Werner, 2007

                   Density fitting integral evaluation by F.R. Manby, 2003,2007, G. Knizia, 2010

 Basis set AUG-CC-PVTZ/JKFIT generated.  Number of basis functions:   196 
 Basis set CC-PVTZ-F12/OPTRI generated.  Number of basis functions:   157 
 Basis set AUG-CC-PVTZ/MP2FIT generated. Number of basis functions:   198 

 Convergence thresholds:  THRVAR = 1.00D-08  THRDEN = 1.00D-06

 CCSD(T)     terms to be evaluated (factor= 1.000)


 Number of core orbitals:           1 (   1   0 )
 Number of closed-shell orbitals:   4 (   3   1 )
 Number of external orbitals:      84 (  49  35 )

 Molecular orbitals read from record     2100.2  Type=RHF/CANONICAL (state 1.1)

 MP2-F12 correlation treatment (H.-J. Werner, 2006)
 ==================================================

 Using MP2-F12 with ansatz 3C(FIX)

 Using projected zeroth-order Hamiltonian (+Z)

 FOCKRIB=T FOCKRIC=T FOCKRIP=T CABSP=T CABSA=T CABSK=T CABSF=T GBC=F EBC=F DMAT=T NOFIK=T NOPAO=1 SOLVE=-1  USEPAO=0
 EXCH_A= T EXCH_B= F EXCH_C= F EXCH_P= F
 
 Geminal basis:    OPTFULL  GEM_TYPE=SLATER  BETA=1.0  NGEM=6

 Optimizing Gaussian exponents for each gem_beta

 Geminal optimization for beta= 1.0000
 Weight function:   m=0, omega= 1.4646

 Augmented Hessian optimization of geminal fit. Trust ratio= 0.40000
 Convergence reached after   2 iterations. Final gradient= 8.41D-16, Step= 4.29D-06, Delta= 1.28D-09
 
 Alpha:                 0.19532     0.81920     2.85917     9.50073    35.69989   197.79328
 Coeff:                 0.27070     0.30552     0.18297     0.10986     0.06810     0.04224
 

 Symmetry turned off. Reference energy:        -76.065150957266

 All pairs explicitly correlated. Number of r12-pairs:           10

 Excluding core orbitals from MO domains
 
 AO(A)-basis ORBITAL           loaded. Number of functions:      89
 RI(R)-basis CC-PVTZ-F12/OPTRI loaded. Number of functions:     157
 DF-basis AUG-CC-PVTZ/JKFIT    loaded. Number of functions:     196

 Screening thresholds:   THRAO=  1.00D-10  THRMO=  1.00D-09  THRPROD=  1.00D-09
                         THRSW=  1.00D-05  THROV=  1.00D-12  THRAOF12=   1.00D-08

 CPU time for Fock operators                      1.01 sec
 
 Construction of ABS:
 Smallest eigenvalue of S          7.83E-04  (threshold= 1.00E-08)
 Ratio eigmin/eigmax               1.31E-04  (threshold= 1.00E-09)
 Smallest eigenvalue of S kept     7.83E-04  (threshold= 7.83E-04, 0 functions deleted, 157 kept)
 
 Construction of CABS:
 Smallest eigenvalue of S          1.86E-06  (threshold= 1.00E-08)
 Ratio eigmin/eigmax               1.86E-06  (threshold= 1.00E-09)
 Smallest eigenvalue of S kept     1.86E-06  (threshold= 1.86E-06, 0 functions deleted, 157 kept)
 
 CPU time for CABS singles                        0.01 sec

 CABS-singles contribution of  -0.00100837 patched into reference energy.
 New reference energy         -76.06615933
 
 AO(A)-basis ORBITAL           loaded. Number of functions:      89
 RI(R)-basis CC-PVTZ-F12/OPTRI loaded. Number of functions:     157
 DF-basis AUG-CC-PVTZ/MP2FIT   loaded. Number of functions:     198

 Screening thresholds:   THRAO=  1.00D-10  THRMO=  1.00D-09  THRPROD=  1.00D-09
                         THRSW=  1.00D-05  THROV=  1.00D-12  THRAOF12=   1.00D-08

 CPU time for 3-index integral evaluation         0.55 sec
 CPU time for first  half transformation          0.01 sec (17636.1 MFLOP/sec)
 CPU time for second half transformation          0.01 sec (  493.4 MFLOP/sec)
 CPU time for assembly                            0.03 sec (17837.5 MFLOP/sec)
 CPU time for tranop_f12                          0.03 sec (21731.0 MFLOP/sec)
 CPU time for f12 integrals (total)               1.45 sec, Elapsed time:      1.50 sec
 CPU time for f12 matrices (total)                0.01 sec, Elapsed time:      0.01 sec

 Diagonal F12 approximation with fixed coefficients:  TSING= 0.500,  TTRIP= 0.250 (scaled by -1/beta)

 DF-MP2-F12 energy corrections:
 ==============================
 Approx.                                    Singlet             Triplet             Total
 DF-MP2-F12/3*C(DX,FIX)                -0.025262635917     -0.003022158873     -0.028284794790
 DF-MP2-F12/3*C(FIX)                   -0.023464611167     -0.002731578741     -0.026196189908
 DF-MP2-F12/3C(FIX)                    -0.023388693670     -0.002827806252     -0.026216499921

 DF-MP2-F12 correlation energies:
 ================================
 Approx.                                    Singlet             Triplet             Ecorr            Total Energy
 DF-MP2                                -0.173856512117     -0.099226084512     -0.273082596630    -76.339241928691
 DF-MP2-F12/3*C(DX,FIX)                -0.199119148035     -0.102248243385     -0.301367391420    -76.367526723482
 DF-MP2-F12/3*C(FIX)                   -0.197321123285     -0.101957663253     -0.299278786538    -76.365438118600
 DF-MP2-F12/3C(FIX)                    -0.197245205787     -0.102053890764     -0.299299096551    -76.365458428613

 SCS-DF-MP2 energies (F_SING= 1.20000  F_TRIP= 0.62222  F_PARALLEL= 0.33333):
 ============================================================================
 SCS-DF-MP2                            -0.270368489348    -76.336527821410
 SCS-DF-MP2-F12/3*C(DX,FIX)            -0.302564106859    -76.368723438921
 SCS-DF-MP2-F12/3*C(FIX)               -0.300225671743    -76.366385003805
 SCS-DF-MP2-F12/3C(FIX)                -0.300194445642    -76.366353777704

 Symmetry restored.
 Symmetry transformation completed.

 Number of N-1 electron functions:               4
 Number of N-2 electron functions:              10
 Number of singly external CSFs:               182
 Number of doubly external CSFs:             28588
 Total number of CSFs:                       28771

 Length of J-op  integral file:               8.96 MB
 Length of K-op  integral file:              13.55 MB
 Length of 3-ext integral record:             0.00 MB

 Memory could be reduced to 2.31 Mwords without degradation in triples

 Integral transformation finished. Total CPU:   0.07 sec, npass=  1  Memory used:   0.69 MW

 Reference energy:                    -76.06615933

 Adding F12 terms to K(Cij), methodcc=6,  factor= 1.0

 ITER.      SQ.NORM     CORR.ENERGY   TOTAL ENERGY   ENERGY CHANGE        DEN1      VAR(S)    VAR(P)  DIIS     TIME  TIME/IT
   1      1.06144234    -0.27342300   -76.33958233    -0.00029790     0.00546963  0.72D-03  0.95D-03  1  1     2.80     0.07
   2      1.06464111    -0.27315593   -76.33931526     0.00026707    -0.00450573  0.12D-04  0.10D-03  2  2     2.86     0.07
   3      1.06575497    -0.27327976   -76.33943909    -0.00012383    -0.00077473  0.84D-05  0.64D-05  3  3     2.93     0.07
   4      1.06625989    -0.27330068   -76.33946001    -0.00002092    -0.00033778  0.41D-06  0.50D-06  4  4     2.99     0.07
   5      1.06634568    -0.27329913   -76.33945846     0.00000155    -0.00001870  0.12D-06  0.31D-07  5  5     3.04     0.07
   6      1.06636884    -0.27329788   -76.33945721     0.00000125    -0.00000384  0.99D-08  0.31D-08  6  6     3.10     0.07
   7      1.06637480    -0.27329751   -76.33945684     0.00000037    -0.00000137  0.85D-09  0.23D-09  6  1     3.16     0.07
   8      1.06637617    -0.27329757   -76.33945690    -0.00000006    -0.00000001  0.64D-10  0.25D-10  6  2     3.21     0.07

 Norm of t1 vector:      0.03493385      S-energy:    -0.00000010      T1 diagnostic:  0.00873346
                                                                       D1 diagnostic:  0.01745934

 Adding energy correction from Wij-K(Fij), methodcc=6  factor= 1.0
 
  CCSD correlation energy              -0.273297567234
  MP2-F12 correction (uncoupled)       -0.025094024140
  C*T doubles correction               -0.000842482150
  f12b correction                       0.004273042538


 Total CPU time for triples:      0.27 sec


 RESULTS
 =======

  Reference energy                    -76.065150957266
  F12 singles correction               -0.001008374796

 F12 singles corrections added to reference energy

  New reference energy                -76.066159332062

  F12a singlet correction              -0.023214788310
  F12a triplet correction              -0.002721717980
  F12a total correction                -0.025936506290

 F12a corrections for ansatz F12/3C(FIX) added to CCSD energy
 
  CCSD-F12a singlet pair energy        -0.208495800671
  CCSD-F12a triplet pair energy        -0.090738168513
  CCSD-F12a correlation energy         -0.299234073524

  Triples (T) contribution             -0.008719243195
  Total correlation energy             -0.307953316719

  CCSD-F12a total energy              -76.365393405586
  CCSD[T]-F12a energy                 -76.374403735310
  CCSD-T-F12a energy                  -76.373985931832
 !CCSD(T)-F12a total energy           -76.374112648781

 F12b corrections for ansatz F12/3C(FIX) added to CCSD(T)-F12a energy

  CCSD-F12b singlet pair energy        -0.204534324396
  CCSD-F12b triplet pair energy        -0.090426602250
  CCSD-F12b correlation energy         -0.294961030986

  Triples (T) contribution             -0.008719243195
  Total correlation energy             -0.303680274181

  CCSD-F12b total energy              -76.361120363048
  CCSD[T]-F12b energy                 -76.370130692771
  CCSD-T-F12b energy                  -76.369712889293
 !CCSD(T)-F12b total energy           -76.369839606243

 Timing summary (sec):

 STEP                 CPU(USER)    SYS     CPU(TOT)    WALL
 Transformation          0.07      0.01      0.08      0.08
 CCSD iterations         0.53      0.07      0.60      0.60
 Triples                 0.27      0.00      0.27      0.26
 MP2-F12                 2.62      0.07      2.69      2.70
 F12b energy             0.04      0.00      0.04      0.06

 Program statistics:

 Available memory in ccsd:                49999786
 Min. memory needed in ccsd:                137628
 Max. memory used in ccsd:                  157351
 Max. memory used in cckext:                239207 ( 9 integral passes)



 **********************************************************************************************************************************
 DATASETS  * FILE   NREC   LENGTH (MB)   RECORD NAMES
              1      20       55.30       500      610      700      900      950      970     1000      129      960     1100   
                                          VAR    BASINP    GEOM    SYMINP    ZMAT    AOBASIS   BASIS     P2S    ABASIS      S 
                                         1400     1410     1200     1210     1080     1600     1650     1300     1700     1380   
                                           T        V       H0       H01     AOSYM     SMH    MOLCAS    ERIS     OPER     JKOP   

              2       6        2.96       700     1000      520     2100     7360     7350   
                                         GEOM     BASIS   MCVARS     RHF    F12ABS    EF12   

 PROGRAMS   *        TOTAL   CCSD(T)        HF       INT
 CPU TIMES  *         4.31      3.55      0.21      0.45
 REAL TIME  *         5.13 SEC
 DISK USED  *       123.10 MB      
 **********************************************************************************************************************************

 CCSD(T)-F12/cc-pVTZ-F12 energy=    -76.369839606243

     CCSD(T)-F12        HF-SCF  
    -76.36983961    -76.06515096
 **********************************************************************************************************************************
 Molpro calculation terminated
 Variable memory released
