
 Primary working directories    : /tmp/r2518/29451.maple
 Secondary working directories  : /tmp/r2518/29451.maple
 Wavefunction directory         : /ddn/home1/r2518/wfu/
 Main file repository           : /tmp/r2518/29451.maple/

 SHA1      : d5ffa45e93fdbca01ffc919aa182cfdae0147319
 NAME      : 2015.1.35
 ARCHNAME  : linux/x86_64
 FC        : /opt/intel/composer_xe_2015.1.133/bin/intel64/ifort
 BLASLIB   : -Wl,-_start-group /opt/intel/mkl/lib/intel64/libmkl_intel_ilp64.a /opt/intel/mkl/lib/intel64/libmkl_intel_thread.a /opt/intel/mkl/lib/intel64/libmkl_core.a -Wl,-_end-group
 id        : olemiss

 Nodes     nprocs
 cn071        1

 Using customized tuning parameters: mindgm=1; mindgv=20; mindgc=4; mindgr=1; noblas=0; minvec=7
 default implementation of scratch files=df  

 memory,50,m
 nocompress;
 geomtyp=xyz
 angstrom
 geometry={
 O,0.0,0.0,-0.0607441568
 H,0.0,0.7574590974,0.5217905143
 H,0.0,-0.7574590974,0.5217905143
 }
 basis=cc-pVTZ-F12
 set,charge=0
 set,spin=0
 hf
 {CCSD(T)-F12}

 Variables initialized (889), CPU time= 0.01 sec
 Commands  initialized (702), CPU time= 0.00 sec, 572 directives.
 Default parameters read. Elapsed time= 0.06 sec

 Checking input...
 Passed
1


                                         ***  PROGRAM SYSTEM MOLPRO  ***
                                       Copyright, TTI GmbH Stuttgart, 2015
                                    Version 2015.1 linked Jul  9 2018 13:16:40


 **********************************************************************************************************************************
 LABEL *                                                                                 
  64 bit serial version                                                                  DATE: 11-Sep-19          TIME: 13:35:00  
 **********************************************************************************************************************************

 SHA1:             d5ffa45e93fdbca01ffc919aa182cfdae0147319
 **********************************************************************************************************************************

 Input parameters for SORTINT:

 COMPRESS =    0.000000
 C_FINAL  =    1.000000
 DEBUG    =   -1.000000
 C_SORT1  =    0.000000
 C_SEWARD =    0.000000
 THRESH   =    0.000000
 IO       =  molpro                                                          
 SPRI     =    0.000000
 SETTING GEOMTYP        =    XYZ
 ZUNIT=ANG
 

 Variable memory set to   50000000 words,  buffer space   230000 words

 SETTING BASIS          =    CC-PVTZ-F12
 SETTING CHARGE         =     0.00000000D+00                                  
 SETTING SPIN           =     0.00000000D+00                                  


 Recomputing integrals since basis changed


 Using spherical harmonics

 Library entry O      S cc-pVTZ-F12          selected for orbital group  1
 Library entry O      P cc-pVTZ-F12          selected for orbital group  1
 Library entry O      D cc-pVTZ-F12          selected for orbital group  1
 Library entry O      F cc-pVTZ-F12          selected for orbital group  1
 Library entry H      S cc-pVTZ-F12          selected for orbital group  2
 Library entry H      P cc-pVTZ-F12          selected for orbital group  2
 Library entry H      D cc-pVTZ-F12          selected for orbital group  2


 PROGRAM * SEWARD (Integral evaluation for generally contracted gaussian basis sets)     Author: Roland Lindh, 1990

 Geometry written to block  1 of record 700


 Point group  C2v 



 ATOMIC COORDINATES

 NR  ATOM    CHARGE       X              Y              Z

   1  O       8.00    0.000000000    0.000000000   -0.114789820
   2  H       1.00    0.000000000    1.431390245    0.986041166
   3  H       1.00    0.000000000   -1.431390245    0.986041166

 Bond lengths in Bohr (Angstrom)

 1-2  1.805742754  1-3  1.805742754
     ( 0.955557914)     ( 0.955557914)

 Bond angles

  2-1-3  104.87480899

 NUCLEAR CHARGE:                   10
 NUMBER OF PRIMITIVE AOS:         114
 NUMBER OF SYMMETRY AOS:          103
 NUMBER OF CONTRACTIONS:           89   (  35A1  +  18B1  +  26B2  +  10A2  )
 NUMBER OF CORE ORBITALS:           1   (   1A1  +   0B1  +   0B2  +   0A2  )
 NUMBER OF VALENCE ORBITALS:        6   (   3A1  +   1B1  +   2B2  +   0A2  )


 NUCLEAR REPULSION ENERGY    9.20993055

 Eigenvalues of metric

         1 0.212E-03 0.573E-03 0.710E-03 0.158E-02 0.214E-02 0.390E-02 0.736E-02 0.171E-01
         2 0.691E-03 0.984E-02 0.435E-01 0.838E-01 0.126E+00 0.219E+00 0.245E+00 0.363E+00
         3 0.447E-03 0.793E-03 0.201E-02 0.434E-02 0.840E-02 0.136E-01 0.172E-01 0.450E-01
         4 0.826E-02 0.891E-01 0.190E+00 0.311E+00 0.423E+00 0.585E+00 0.878E+00 0.127E+01


 Contracted 2-electron integrals neglected if value below      1.0D-11

        1872804. INTEGRALS WRITTEN OUT IN     458 BLOCKS ON RECORD 1290 OF FILE 1


 NUMBER OF SORTED TWO-ELECTRON INTEGRALS:    2124910.     BUFFER LENGTH:  32768
 NUMBER OF SEGMENTS:   1  SEGMENT LENGTH:    2124910      RECORD LENGTH: 524288

 Memory used in sort:       2.68 MW

 SORT1 READ     1872804. AND WROTE     1933138. INTEGRALS IN      6 RECORDS. CPU TIME:     0.08 SEC, REAL TIME:     0.10 SEC
 SORT2 READ     1933138. AND WROTE     2124910. INTEGRALS IN      1 RECORDS. CPU TIME:     0.05 SEC, REAL TIME:     0.08 SEC

 FILE SIZES:   FILE 1:    50.1 MBYTE,  FILE 4:    25.2 MBYTE,   TOTAL:     75.3 MBYTE

 OPERATOR DM      FOR CENTER  0  COORDINATES:    0.000000    0.000000    0.000000


 **********************************************************************************************************************************
 DATASETS  * FILE   NREC   LENGTH (MB)   RECORD NAMES
              1      19       35.96       500      610      700      900      950      970     1000      129      960     1100   
                                          VAR    BASINP    GEOM    SYMINP    ZMAT    AOBASIS   BASIS     P2S    ABASIS      S 
                                         1400     1410     1200     1210     1080     1600     1650     1300     1700   
                                           T        V       H0       H01     AOSYM     SMH    MOLCAS    ERIS     OPER   

 PROGRAMS   *        TOTAL       INT
 CPU TIMES  *         0.49      0.40
 REAL TIME  *         1.09 SEC
 DISK USED  *        75.63 MB      
 **********************************************************************************************************************************


 PROGRAM * RHF-SCF (CLOSED SHELL)       Authors: W. Meyer, H.-J. Werner


 NUMBER OF ELECTRONS:       5+    5-
 CONVERGENCE THRESHOLDS:    1.00E-05 (Density)    1.00E-07 (Energy)
 MAX. NUMBER OF ITERATIONS:       60
 INTERPOLATION TYPE:            DIIS
 INTERPOLATION STEPS:              2 (START)      1 (STEP)
 LEVEL SHIFTS:                  0.00 (CLOSED)  0.00 (OPEN) 



 Orbital guess generated from atomic densities. Full valence occupancy:    4   1   2   0

 Molecular orbital dump at record        2100.2

 Initial occupancy:   3   1   1   0

 ITERATION    DDIFF          GRAD             ENERGY        2-EL.EN.            DIPOLE MOMENTS         DIIS   ORB.
    1      0.000D+00      0.000D+00       -76.02737678     77.702577    0.00000    0.00000    1.12728    0    start
    2      0.000D+00      0.185D-01       -76.05428797     74.126519    0.00000    0.00000    0.67405    1    diag
    3      0.205D-01      0.115D-01       -76.06518460     75.697249    0.00000    0.00000    0.78598    2    diag
    4      0.694D-02      0.109D-02       -76.06536753     75.606595    0.00000    0.00000    0.78262    3    diag
    5      0.102D-02      0.292D-03       -76.06538548     75.620351    0.00000    0.00000    0.78139    4    diag
    6      0.353D-03      0.554D-04       -76.06538653     75.619464    0.00000    0.00000    0.78114    5    diag
    7      0.993D-04      0.108D-04       -76.06538657     75.619605    0.00000    0.00000    0.78104    6    diag
    8      0.209D-04      0.217D-05       -76.06538658     75.619596    0.00000    0.00000    0.78100    7    diag
    9      0.387D-05      0.274D-06       -76.06538658     75.619584    0.00000    0.00000    0.78099    0    orth

 Final occupancy:   3   1   1   0

 !RHF STATE 1.1 Energy                -76.065386575528
 Nuclear energy                         9.20993055
 One-electron energy                 -123.08510903
 Two-electron energy                   37.80979190
 Virial quotient                       -1.00085178
 !RHF STATE 1.1 Dipole moment           0.00000000     0.00000000     0.78099233
 Dipole moment /Debye                   0.00000000     0.00000000     1.98495449

 Orbital energies:

         1.1          2.1          3.1          4.1          5.1
    -20.564440    -1.353588    -0.584639     0.101893     0.145084

         1.2          2.2          3.2
     -0.510553     0.145247     0.510134

         1.3          2.3          3.3
     -0.719544     0.120483     0.226382

         1.4          2.4
      0.480804     1.303382

 HOMO      1.2    -0.510553 =     -13.8928eV
 LUMO      4.1     0.101893 =       2.7727eV
 LUMO-HOMO         0.612446 =      16.6655eV


 **********************************************************************************************************************************
 DATASETS  * FILE   NREC   LENGTH (MB)   RECORD NAMES
              1      19       35.96       500      610      700      900      950      970     1000      129      960     1100   
                                          VAR    BASINP    GEOM    SYMINP    ZMAT    AOBASIS   BASIS     P2S    ABASIS      S 
                                         1400     1410     1200     1210     1080     1600     1650     1300     1700   
                                           T        V       H0       H01     AOSYM     SMH    MOLCAS    ERIS     OPER   

              2       4        2.84       700     1000      520     2100   
                                         GEOM     BASIS   MCVARS     RHF  

 PROGRAMS   *        TOTAL        HF       INT
 CPU TIMES  *         0.58      0.09      0.40
 REAL TIME  *         1.21 SEC
 DISK USED  *        75.63 MB      
 **********************************************************************************************************************************


 PROGRAM * CCSD (Closed-shell coupled cluster)     Authors: C. Hampel, H.-J. Werner, 1991, M. Deegan, P.J. Knowles, 1992

                                  CCSD-F12 implementation by  H.-J. Werner, 2007

                   Density fitting integral evaluation by F.R. Manby, 2003,2007, G. Knizia, 2010

 Basis set AUG-CC-PVTZ/JKFIT generated.  Number of basis functions:   196 
 Basis set CC-PVTZ-F12/OPTRI generated.  Number of basis functions:   157 
 Basis set AUG-CC-PVTZ/MP2FIT generated. Number of basis functions:   198 

 Convergence thresholds:  THRVAR = 1.00D-08  THRDEN = 1.00D-06

 CCSD(T)     terms to be evaluated (factor= 1.000)


 Number of core orbitals:           1 (   1   0   0   0 )
 Number of closed-shell orbitals:   4 (   2   1   1   0 )
 Number of external orbitals:      84 (  32  17  25  10 )

 Molecular orbitals read from record     2100.2  Type=RHF/CANONICAL (state 1.1)

 MP2-F12 correlation treatment (H.-J. Werner, 2006)
 ==================================================

 Using MP2-F12 with ansatz 3C(FIX)

 Using projected zeroth-order Hamiltonian (+Z)

 FOCKRIB=T FOCKRIC=T FOCKRIP=T CABSP=T CABSA=T CABSK=T CABSF=T GBC=F EBC=F DMAT=T NOFIK=T NOPAO=1 SOLVE=-1  USEPAO=0
 EXCH_A= T EXCH_B= F EXCH_C= F EXCH_P= F
 
 Geminal basis:    OPTFULL  GEM_TYPE=SLATER  BETA=1.0  NGEM=6

 Optimizing Gaussian exponents for each gem_beta

 Geminal optimization for beta= 1.0000
 Weight function:   m=0, omega= 1.4646

 Augmented Hessian optimization of geminal fit. Trust ratio= 0.40000
 Convergence reached after   2 iterations. Final gradient= 8.41D-16, Step= 4.29D-06, Delta= 1.28D-09
 
 Alpha:                 0.19532     0.81920     2.85917     9.50073    35.69989   197.79328
 Coeff:                 0.27070     0.30552     0.18297     0.10986     0.06810     0.04224
 

 Symmetry turned off. Reference energy:        -76.065386575528

 All pairs explicitly correlated. Number of r12-pairs:           10

 Excluding core orbitals from MO domains
 
 AO(A)-basis ORBITAL           loaded. Number of functions:      89
 RI(R)-basis CC-PVTZ-F12/OPTRI loaded. Number of functions:     157
 DF-basis AUG-CC-PVTZ/JKFIT    loaded. Number of functions:     196

 Screening thresholds:   THRAO=  1.00D-10  THRMO=  1.00D-09  THRPROD=  1.00D-09
                         THRSW=  1.00D-05  THROV=  1.00D-12  THRAOF12=   1.00D-08

 CPU time for Fock operators                      1.03 sec
 
 Construction of ABS:
 Smallest eigenvalue of S          7.74E-04  (threshold= 1.00E-08)
 Ratio eigmin/eigmax               1.29E-04  (threshold= 1.00E-09)
 Smallest eigenvalue of S kept     7.74E-04  (threshold= 7.74E-04, 0 functions deleted, 157 kept)
 
 Construction of CABS:
 Smallest eigenvalue of S          1.83E-06  (threshold= 1.00E-08)
 Ratio eigmin/eigmax               1.83E-06  (threshold= 1.00E-09)
 Smallest eigenvalue of S kept     1.83E-06  (threshold= 1.83E-06, 0 functions deleted, 157 kept)
 
 CPU time for CABS singles                        0.01 sec

 CABS-singles contribution of  -0.00101393 patched into reference energy.
 New reference energy         -76.06640050
 
 AO(A)-basis ORBITAL           loaded. Number of functions:      89
 RI(R)-basis CC-PVTZ-F12/OPTRI loaded. Number of functions:     157
 DF-basis AUG-CC-PVTZ/MP2FIT   loaded. Number of functions:     198

 Screening thresholds:   THRAO=  1.00D-10  THRMO=  1.00D-09  THRPROD=  1.00D-09
                         THRSW=  1.00D-05  THROV=  1.00D-12  THRAOF12=   1.00D-08

 CPU time for 3-index integral evaluation         0.48 sec
 CPU time for first  half transformation          0.05 sec ( 3527.2 MFLOP/sec)
 CPU time for sorting                             0.01 sec
 CPU time for assembly                            0.03 sec (17837.5 MFLOP/sec)
 CPU time for tranop_f12                          0.03 sec (21731.0 MFLOP/sec)
 CPU time for f12 integrals (total)               1.46 sec, Elapsed time:      1.49 sec
 CPU time for f12 matrices (total)                0.00 sec, Elapsed time:      0.02 sec

 Diagonal F12 approximation with fixed coefficients:  TSING= 0.500,  TTRIP= 0.250 (scaled by -1/beta)

 DF-MP2-F12 energy corrections:
 ==============================
 Approx.                                    Singlet             Triplet             Total
 DF-MP2-F12/3*C(DX,FIX)                -0.025281800974     -0.003025238843     -0.028307039818
 DF-MP2-F12/3*C(FIX)                   -0.023479013412     -0.002733642039     -0.026212655451
 DF-MP2-F12/3C(FIX)                    -0.023403004450     -0.002829895460     -0.026232899910

 DF-MP2-F12 correlation energies:
 ================================
 Approx.                                    Singlet             Triplet             Ecorr            Total Energy
 DF-MP2                                -0.173674808250     -0.099128975255     -0.272803783505    -76.339204286320
 DF-MP2-F12/3*C(DX,FIX)                -0.198956609224     -0.102154214098     -0.301110823322    -76.367511326137
 DF-MP2-F12/3*C(FIX)                   -0.197153821662     -0.101862617294     -0.299016438956    -76.365416941771
 DF-MP2-F12/3C(FIX)                    -0.197077812699     -0.101958870715     -0.299036683415    -76.365437186230

 SCS-DF-MP2 energies (F_SING= 1.20000  F_TRIP= 0.62222  F_PARALLEL= 0.33333):
 ============================================================================
 SCS-DF-MP2                            -0.270090021169    -76.336490523984
 SCS-DF-MP2-F12/3*C(DX,FIX)            -0.302310553175    -76.368711055989
 SCS-DF-MP2-F12/3*C(FIX)               -0.299965770088    -76.366366272903
 SCS-DF-MP2-F12/3C(FIX)                -0.299934450351    -76.366334953166

 Symmetry restored.
 Symmetry transformation completed.

 Number of N-1 electron functions:               4
 Number of N-2 electron functions:              10
 Number of singly external CSFs:               106
 Number of doubly external CSFs:             14828
 Total number of CSFs:                       14935

 Length of J-op  integral file:               8.86 MB
 Length of K-op  integral file:              13.00 MB
 Length of 3-ext integral record:             0.00 MB

 Memory could be reduced to 1.33 Mwords without degradation in triples

 Integral transformation finished. Total CPU:   0.03 sec, npass=  1  Memory used:   0.24 MW

 Reference energy:                    -76.06640050

 Adding F12 terms to K(Cij), methodcc=6,  factor= 1.0

 ITER.      SQ.NORM     CORR.ENERGY   TOTAL ENERGY   ENERGY CHANGE        DEN1      VAR(S)    VAR(P)  DIIS     TIME  TIME/IT
   1      1.06123744    -0.27318011   -76.33958061    -0.00033386     0.00539390  0.71D-03  0.94D-03  1  1     2.74     0.03
   2      1.06440395    -0.27291208   -76.33931259     0.00026803    -0.00447550  0.12D-04  0.98D-04  2  2     2.77     0.03
   3      1.06550156    -0.27303419   -76.33943469    -0.00012211    -0.00076719  0.82D-05  0.63D-05  3  3     2.80     0.03
   4      1.06599780    -0.27305488   -76.33945539    -0.00002069    -0.00033332  0.40D-06  0.49D-06  4  4     2.83     0.03
   5      1.06608216    -0.27305334   -76.33945384     0.00000154    -0.00001835  0.11D-06  0.30D-07  5  5     2.86     0.03
   6      1.06610494    -0.27305210   -76.33945260     0.00000124    -0.00000378  0.97D-08  0.30D-08  6  6     2.89     0.03
   7      1.06611081    -0.27305174   -76.33945224     0.00000036    -0.00000135  0.83D-09  0.23D-09  6  1     2.92     0.03
   8      1.06611216    -0.27305180   -76.33945230    -0.00000006    -0.00000001  0.62D-10  0.24D-10  6  2     2.95     0.03

 Norm of t1 vector:      0.03470476      S-energy:    -0.00000010      T1 diagnostic:  0.00867619
                                                                       D1 diagnostic:  0.01732403

 Adding energy correction from Wij-K(Fij), methodcc=6  factor= 1.0
 
  CCSD correlation energy              -0.273051796246
  MP2-F12 correction (uncoupled)       -0.025111199525
  C*T doubles correction               -0.000842388311
  f12b correction                       0.004271636744


 Total CPU time for triples:      0.11 sec


 RESULTS
 =======

  Reference energy                    -76.065386575528
  F12 singles correction               -0.001013927287

 F12 singles corrections added to reference energy

  New reference energy                -76.066400502815

  F12a singlet correction              -0.023229736588
  F12a triplet correction              -0.002723851249
  F12a total correction                -0.025953587837

 F12a corrections for ansatz F12/3C(FIX) added to CCSD energy
 
  CCSD-F12a singlet pair energy        -0.208294162634
  CCSD-F12a triplet pair energy        -0.090711119532
  CCSD-F12a correlation energy         -0.299005384083

  Triples (T) contribution             -0.008685100892
  Total correlation energy             -0.307690484975

  CCSD-F12a total energy              -76.365405886898
  CCSD[T]-F12a energy                 -76.374379187889
  CCSD-T-F12a energy                  -76.373965724776
 !CCSD(T)-F12a total energy           -76.374090987790

 F12b corrections for ansatz F12/3C(FIX) added to CCSD(T)-F12a energy

  CCSD-F12b singlet pair energy        -0.204334234195
  CCSD-F12b triplet pair energy        -0.090399411227
  CCSD-F12b correlation energy         -0.294733747339

  Triples (T) contribution             -0.008685100892
  Total correlation energy             -0.303418848231

  CCSD-F12b total energy              -76.361134250154
  CCSD[T]-F12b energy                 -76.370107551144
  CCSD-T-F12b energy                  -76.369694088031
 !CCSD(T)-F12b total energy           -76.369819351046

 Timing summary (sec):

 STEP                 CPU(USER)    SYS     CPU(TOT)    WALL
 Transformation          0.03      0.00      0.03      0.06
 CCSD iterations         0.27      0.05      0.32      0.32
 Triples                 0.11      0.00      0.11      0.11
 MP2-F12                 2.65      0.08      2.73      2.73
 F12b energy             0.01      0.01      0.02      0.03

 Program statistics:

 Available memory in ccsd:                49999786
 Min. memory needed in ccsd:                 74516
 Max. memory used in ccsd:                   84748
 Max. memory used in cckext:                120394 ( 9 integral passes)



 **********************************************************************************************************************************
 DATASETS  * FILE   NREC   LENGTH (MB)   RECORD NAMES
              1      20       38.72       500      610      700      900      950      970     1000      129      960     1100   
                                          VAR    BASINP    GEOM    SYMINP    ZMAT    AOBASIS   BASIS     P2S    ABASIS      S 
                                         1400     1410     1200     1210     1080     1600     1650     1300     1700     1380   
                                           T        V       H0       H01     AOSYM     SMH    MOLCAS    ERIS     OPER     JKOP   

              2       6        2.89       700     1000      520     2100     7360     7350   
                                         GEOM     BASIS   MCVARS     RHF    F12ABS    EF12   

 PROGRAMS   *        TOTAL   CCSD(T)        HF       INT
 CPU TIMES  *         3.68      3.10      0.09      0.40
 REAL TIME  *         4.49 SEC
 DISK USED  *        78.37 MB      
 **********************************************************************************************************************************

 CCSD(T)-F12/cc-pVTZ-F12 energy=    -76.369819351046

     CCSD(T)-F12        HF-SCF  
    -76.36981935    -76.06538658
 **********************************************************************************************************************************
 Molpro calculation terminated
 Variable memory released
