
 Primary working directories    : /tmp/r2518/29456.maple
 Secondary working directories  : /tmp/r2518/29456.maple
 Wavefunction directory         : /ddn/home1/r2518/wfu/
 Main file repository           : /tmp/r2518/29456.maple/

 SHA1      : d5ffa45e93fdbca01ffc919aa182cfdae0147319
 NAME      : 2015.1.35
 ARCHNAME  : linux/x86_64
 FC        : /opt/intel/composer_xe_2015.1.133/bin/intel64/ifort
 BLASLIB   : -Wl,-_start-group /opt/intel/mkl/lib/intel64/libmkl_intel_ilp64.a /opt/intel/mkl/lib/intel64/libmkl_intel_thread.a /opt/intel/mkl/lib/intel64/libmkl_core.a -Wl,-_end-group
 id        : olemiss

 Nodes     nprocs
 cn068        1

 Using customized tuning parameters: mindgm=1; mindgv=20; mindgc=4; mindgr=1; noblas=0; minvec=7
 default implementation of scratch files=df  

 memory,50,m
 nocompress;
 geomtyp=xyz
 angstrom
 geometry={
 O,0.0,0.0,-0.0657441568
 H,0.0,0.7524590973999999,0.5217905143
 H,0.0,-0.7574590974,0.5217905143
 }
 basis=cc-pVTZ-F12
 set,charge=0
 set,spin=0
 hf
 {CCSD(T)-F12}

 Variables initialized (889), CPU time= 0.00 sec
 Commands  initialized (702), CPU time= 0.01 sec, 572 directives.
 Default parameters read. Elapsed time= 0.04 sec

 Checking input...
 Passed
1


                                         ***  PROGRAM SYSTEM MOLPRO  ***
                                       Copyright, TTI GmbH Stuttgart, 2015
                                    Version 2015.1 linked Jul  9 2018 13:16:40


 **********************************************************************************************************************************
 LABEL *                                                                                 
  64 bit serial version                                                                  DATE: 11-Sep-19          TIME: 13:35:00  
 **********************************************************************************************************************************

 SHA1:             d5ffa45e93fdbca01ffc919aa182cfdae0147319
 **********************************************************************************************************************************

 Input parameters for SORTINT:

 COMPRESS =    0.000000
 C_FINAL  =    1.000000
 DEBUG    =   -1.000000
 C_SORT1  =    0.000000
 C_SEWARD =    0.000000
 THRESH   =    0.000000
 IO       =  molpro                                                          
 SPRI     =    0.000000
 SETTING GEOMTYP        =    XYZ
 ZUNIT=ANG
 

 Variable memory set to   50000000 words,  buffer space   230000 words

 SETTING BASIS          =    CC-PVTZ-F12
 SETTING CHARGE         =     0.00000000D+00                                  
 SETTING SPIN           =     0.00000000D+00                                  


 Recomputing integrals since basis changed


 Using spherical harmonics

 Library entry O      S cc-pVTZ-F12          selected for orbital group  1
 Library entry O      P cc-pVTZ-F12          selected for orbital group  1
 Library entry O      D cc-pVTZ-F12          selected for orbital group  1
 Library entry O      F cc-pVTZ-F12          selected for orbital group  1
 Library entry H      S cc-pVTZ-F12          selected for orbital group  2
 Library entry H      P cc-pVTZ-F12          selected for orbital group  2
 Library entry H      D cc-pVTZ-F12          selected for orbital group  2


 PROGRAM * SEWARD (Integral evaluation for generally contracted gaussian basis sets)     Author: Roland Lindh, 1990

 Geometry written to block  1 of record 700


 Point group  Cs  



 ATOMIC COORDINATES

 NR  ATOM    CHARGE       X              Y              Z

   1  O       8.00    0.000000000    0.000000000   -0.124238451
   2  H       1.00    0.000000000    1.421941614    0.986041166
   3  H       1.00    0.000000000   -1.431390245    0.986041166

 Bond lengths in Bohr (Angstrom)

 1-2  1.804061746  1-3  1.811518385
     ( 0.954668363)     ( 0.958614247)

 Bond angles

  2-1-3  104.21710241

 NUCLEAR CHARGE:                   10
 NUMBER OF PRIMITIVE AOS:         114
 NUMBER OF SYMMETRY AOS:          103
 NUMBER OF CONTRACTIONS:           89   (  61A'  +  28A"  )
 NUMBER OF CORE ORBITALS:           1   (   1A'  +   0A"  )
 NUMBER OF VALENCE ORBITALS:        6   (   5A'  +   1A"  )


 NUCLEAR REPULSION ENERGY    9.20109032

 Eigenvalues of metric

         1 0.213E-03 0.450E-03 0.573E-03 0.710E-03 0.793E-03 0.158E-02 0.202E-02 0.214E-02
         2 0.691E-03 0.833E-02 0.987E-02 0.438E-01 0.839E-01 0.889E-01 0.127E+00 0.190E+00


 Contracted 2-electron integrals neglected if value below      1.0D-11

        3628307. INTEGRALS WRITTEN OUT IN     887 BLOCKS ON RECORD 1290 OF FILE 1


 NUMBER OF SORTED TWO-ELECTRON INTEGRALS:    4174745.     BUFFER LENGTH:  32768
 NUMBER OF SEGMENTS:   1  SEGMENT LENGTH:    4174745      RECORD LENGTH: 524288

 Memory used in sort:       4.73 MW

 SORT1 READ     3628307. AND WROTE     3690031. INTEGRALS IN     11 RECORDS. CPU TIME:     0.09 SEC, REAL TIME:     0.13 SEC
 SORT2 READ     3690031. AND WROTE     4174745. INTEGRALS IN      1 RECORDS. CPU TIME:     0.08 SEC, REAL TIME:     0.10 SEC

 FILE SIZES:   FILE 1:    78.3 MBYTE,  FILE 4:    46.2 MBYTE,   TOTAL:    124.4 MBYTE

 OPERATOR DM      FOR CENTER  0  COORDINATES:    0.000000    0.000000    0.000000


 **********************************************************************************************************************************
 DATASETS  * FILE   NREC   LENGTH (MB)   RECORD NAMES
              1      19       50.78       500      610      700      900      950      970     1000      129      960     1100   
                                          VAR    BASINP    GEOM    SYMINP    ZMAT    AOBASIS   BASIS     P2S    ABASIS      S 
                                         1400     1410     1200     1210     1080     1600     1650     1300     1700   
                                           T        V       H0       H01     AOSYM     SMH    MOLCAS    ERIS     OPER   

 PROGRAMS   *        TOTAL       INT
 CPU TIMES  *         0.59      0.51
 REAL TIME  *         0.90 SEC
 DISK USED  *       124.76 MB      
 **********************************************************************************************************************************


 PROGRAM * RHF-SCF (CLOSED SHELL)       Authors: W. Meyer, H.-J. Werner


 NUMBER OF ELECTRONS:       5+    5-
 CONVERGENCE THRESHOLDS:    1.00E-05 (Density)    1.00E-07 (Energy)
 MAX. NUMBER OF ITERATIONS:       60
 INTERPOLATION TYPE:            DIIS
 INTERPOLATION STEPS:              2 (START)      1 (STEP)
 LEVEL SHIFTS:                  0.00 (CLOSED)  0.00 (OPEN) 



 Orbital guess generated from atomic densities. Full valence occupancy:    6   1

 Molecular orbital dump at record        2100.2

 Initial occupancy:   4   1

 ITERATION    DDIFF          GRAD             ENERGY        2-EL.EN.            DIPOLE MOMENTS         DIIS   ORB.
    1      0.000D+00      0.000D+00       -76.02713481     77.685193    0.00000   -0.00609    1.13567    0    start
    2      0.000D+00      0.136D-01       -76.05410897     74.106492    0.00000   -0.00237    0.67717    1    diag
    3      0.148D-01      0.846D-02       -76.06506457     75.680597    0.00000   -0.00303    0.79067    2    diag
    4      0.504D-02      0.801D-03       -76.06524815     75.589718    0.00000   -0.00279    0.78721    3    diag
    5      0.734D-03      0.216D-03       -76.06526638     75.603649    0.00000   -0.00269    0.78597    4    diag
    6      0.254D-03      0.411D-04       -76.06526745     75.602750    0.00000   -0.00266    0.78572    5    diag
    7      0.716D-04      0.803D-05       -76.06526750     75.602890    0.00000   -0.00265    0.78561    6    diag
    8      0.151D-04      0.160D-05       -76.06526750     75.602881    0.00000   -0.00265    0.78558    7    diag
    9      0.282D-05      0.199D-06       -76.06526750     75.602868    0.00000   -0.00265    0.78557    0    orth

 Final occupancy:   4   1

 !RHF STATE 1.1 Energy                -76.065267503574
 Nuclear energy                         9.20109032
 One-electron energy                 -123.06779203
 Two-electron energy                   37.80143421
 Virial quotient                       -1.00089113
 !RHF STATE 1.1 Dipole moment           0.00000000    -0.00264911     0.78557274
 Dipole moment /Debye                   0.00000000    -0.00673292     1.99659597

 Orbital energies:

         1.1          2.1          3.1          4.1          5.1          6.1
    -20.564918    -1.353503    -0.717665    -0.585720     0.101684     0.120736

         1.2          2.2          3.2
     -0.510655     0.145239     0.481286

 HOMO      1.2    -0.510655 =     -13.8956eV
 LUMO      5.1     0.101684 =       2.7670eV
 LUMO-HOMO         0.612339 =      16.6626eV


 **********************************************************************************************************************************
 DATASETS  * FILE   NREC   LENGTH (MB)   RECORD NAMES
              1      19       50.78       500      610      700      900      950      970     1000      129      960     1100   
                                          VAR    BASINP    GEOM    SYMINP    ZMAT    AOBASIS   BASIS     P2S    ABASIS      S 
                                         1400     1410     1200     1210     1080     1600     1650     1300     1700   
                                           T        V       H0       H01     AOSYM     SMH    MOLCAS    ERIS     OPER   

              2       4        2.88       700     1000      520     2100   
                                         GEOM     BASIS   MCVARS     RHF  

 PROGRAMS   *        TOTAL        HF       INT
 CPU TIMES  *         0.83      0.24      0.51
 REAL TIME  *         1.20 SEC
 DISK USED  *       124.76 MB      
 **********************************************************************************************************************************


 PROGRAM * CCSD (Closed-shell coupled cluster)     Authors: C. Hampel, H.-J. Werner, 1991, M. Deegan, P.J. Knowles, 1992

                                  CCSD-F12 implementation by  H.-J. Werner, 2007

                   Density fitting integral evaluation by F.R. Manby, 2003,2007, G. Knizia, 2010

 Basis set AUG-CC-PVTZ/JKFIT generated.  Number of basis functions:   196 
 Basis set CC-PVTZ-F12/OPTRI generated.  Number of basis functions:   157 
 Basis set AUG-CC-PVTZ/MP2FIT generated. Number of basis functions:   198 

 Convergence thresholds:  THRVAR = 1.00D-08  THRDEN = 1.00D-06

 CCSD(T)     terms to be evaluated (factor= 1.000)


 Number of core orbitals:           1 (   1   0 )
 Number of closed-shell orbitals:   4 (   3   1 )
 Number of external orbitals:      84 (  57  27 )

 Molecular orbitals read from record     2100.2  Type=RHF/CANONICAL (state 1.1)

 MP2-F12 correlation treatment (H.-J. Werner, 2006)
 ==================================================

 Using MP2-F12 with ansatz 3C(FIX)

 Using projected zeroth-order Hamiltonian (+Z)

 FOCKRIB=T FOCKRIC=T FOCKRIP=T CABSP=T CABSA=T CABSK=T CABSF=T GBC=F EBC=F DMAT=T NOFIK=T NOPAO=1 SOLVE=-1  USEPAO=0
 EXCH_A= T EXCH_B= F EXCH_C= F EXCH_P= F
 
 Geminal basis:    OPTFULL  GEM_TYPE=SLATER  BETA=1.0  NGEM=6

 Optimizing Gaussian exponents for each gem_beta

 Geminal optimization for beta= 1.0000
 Weight function:   m=0, omega= 1.4646

 Augmented Hessian optimization of geminal fit. Trust ratio= 0.40000
 Convergence reached after   2 iterations. Final gradient= 8.41D-16, Step= 4.29D-06, Delta= 1.28D-09
 
 Alpha:                 0.19532     0.81920     2.85917     9.50073    35.69989   197.79328
 Coeff:                 0.27070     0.30552     0.18297     0.10986     0.06810     0.04224
 

 Symmetry turned off. Reference energy:        -76.065267503574

 All pairs explicitly correlated. Number of r12-pairs:           10

 Excluding core orbitals from MO domains
 
 AO(A)-basis ORBITAL           loaded. Number of functions:      89
 RI(R)-basis CC-PVTZ-F12/OPTRI loaded. Number of functions:     157
 DF-basis AUG-CC-PVTZ/JKFIT    loaded. Number of functions:     196

 Screening thresholds:   THRAO=  1.00D-10  THRMO=  1.00D-09  THRPROD=  1.00D-09
                         THRSW=  1.00D-05  THROV=  1.00D-12  THRAOF12=   1.00D-08

 CPU time for Fock operators                      0.88 sec
 
 Construction of ABS:
 Smallest eigenvalue of S          7.76E-04  (threshold= 1.00E-08)
 Ratio eigmin/eigmax               1.29E-04  (threshold= 1.00E-09)
 Smallest eigenvalue of S kept     7.76E-04  (threshold= 7.76E-04, 0 functions deleted, 157 kept)
 
 Construction of CABS:
 Smallest eigenvalue of S          1.84E-06  (threshold= 1.00E-08)
 Ratio eigmin/eigmax               1.84E-06  (threshold= 1.00E-09)
 Smallest eigenvalue of S kept     1.84E-06  (threshold= 1.84E-06, 0 functions deleted, 157 kept)
 
 CPU time for CABS singles                        0.01 sec

 CABS-singles contribution of  -0.00101239 patched into reference energy.
 New reference energy         -76.06627989
 
 AO(A)-basis ORBITAL           loaded. Number of functions:      89
 RI(R)-basis CC-PVTZ-F12/OPTRI loaded. Number of functions:     157
 DF-basis AUG-CC-PVTZ/MP2FIT   loaded. Number of functions:     198

 Screening thresholds:   THRAO=  1.00D-10  THRMO=  1.00D-09  THRPROD=  1.00D-09
                         THRSW=  1.00D-05  THROV=  1.00D-12  THRAOF12=   1.00D-08

 CPU time for 3-index integral evaluation         0.49 sec
 CPU time for first  half transformation          0.02 sec ( 8818.0 MFLOP/sec)
 CPU time for fitting                             0.01 sec ( 8185.8 MFLOP/sec)
 CPU time for tilde quantities                    0.01 sec (10820.3 MFLOP/sec)
 CPU time for tranop_f12                          0.03 sec (21731.0 MFLOP/sec)
 CPU time for f12 integrals (total)               1.27 sec, Elapsed time:      1.29 sec
 CPU time for f12 matrices (total)                0.01 sec, Elapsed time:      0.01 sec

 Diagonal F12 approximation with fixed coefficients:  TSING= 0.500,  TTRIP= 0.250 (scaled by -1/beta)

 DF-MP2-F12 energy corrections:
 ==============================
 Approx.                                    Singlet             Triplet             Total
 DF-MP2-F12/3*C(DX,FIX)                -0.025273505404     -0.003024303529     -0.028297808933
 DF-MP2-F12/3*C(FIX)                   -0.023472206729     -0.002733132721     -0.026205339449
 DF-MP2-F12/3C(FIX)                    -0.023396053228     -0.002829372009     -0.026225425237

 DF-MP2-F12 correlation energies:
 ================================
 Approx.                                    Singlet             Triplet             Ecorr            Total Energy
 DF-MP2                                -0.173759294710     -0.099177649157     -0.272936943867    -76.339216836160
 DF-MP2-F12/3*C(DX,FIX)                -0.199032800114     -0.102201952686     -0.301234752800    -76.367514645093
 DF-MP2-F12/3*C(FIX)                   -0.197231501439     -0.101910781878     -0.299142283317    -76.365422175610
 DF-MP2-F12/3C(FIX)                    -0.197155347938     -0.102007021166     -0.299162369104    -76.365442261397

 SCS-DF-MP2 energies (F_SING= 1.20000  F_TRIP= 0.62222  F_PARALLEL= 0.33333):
 ============================================================================
 SCS-DF-MP2                            -0.270221690905    -76.336501583199
 SCS-DF-MP2-F12/3*C(DX,FIX)            -0.302431686252    -76.368711578546
 SCS-DF-MP2-F12/3*C(FIX)               -0.300088954895    -76.366368847188
 SCS-DF-MP2-F12/3C(FIX)                -0.300057452918    -76.366337345211

 Symmetry restored.
 Symmetry transformation completed.

 Number of N-1 electron functions:               4
 Number of N-2 electron functions:              10
 Number of singly external CSFs:               198
 Number of doubly external CSFs:             29292
 Total number of CSFs:                       29491

 Length of J-op  integral file:               8.97 MB
 Length of K-op  integral file:              13.62 MB
 Length of 3-ext integral record:             0.00 MB

 Memory could be reduced to 2.37 Mwords without degradation in triples

 Integral transformation finished. Total CPU:   0.06 sec, npass=  1  Memory used:   0.62 MW

 Reference energy:                    -76.06627989

 Adding F12 terms to K(Cij), methodcc=6,  factor= 1.0

 ITER.      SQ.NORM     CORR.ENERGY   TOTAL ENERGY   ENERGY CHANGE        DEN1      VAR(S)    VAR(P)  DIIS     TIME  TIME/IT
   1      1.06132480    -0.27329649   -76.33957638    -0.00031711     0.00542915  0.71D-03  0.95D-03  1  1     2.42     0.06
   2      1.06450534    -0.27302823   -76.33930812     0.00026827    -0.00448924  0.12D-04  0.99D-04  2  2     2.49     0.06
   3      1.06560984    -0.27315101   -76.33943090    -0.00012279    -0.00077024  0.83D-05  0.64D-05  3  3     2.54     0.06
   4      1.06610998    -0.27317179   -76.33945168    -0.00002078    -0.00033536  0.41D-06  0.50D-06  4  4     2.60     0.06
   5      1.06619494    -0.27317024   -76.33945013     0.00000155    -0.00001851  0.11D-06  0.30D-07  5  5     2.66     0.06
   6      1.06621786    -0.27316899   -76.33944889     0.00000125    -0.00000380  0.98D-08  0.30D-08  6  6     2.72     0.06
   7      1.06622377    -0.27316863   -76.33944852     0.00000036    -0.00000135  0.83D-09  0.23D-09  6  1     2.77     0.06
   8      1.06622512    -0.27316869   -76.33944858    -0.00000006    -0.00000001  0.62D-10  0.24D-10  6  2     2.83     0.06

 Norm of t1 vector:      0.03481663      S-energy:    -0.00000010      T1 diagnostic:  0.00870416
                                                                       D1 diagnostic:  0.01739552

 Adding energy correction from Wij-K(Fij), methodcc=6  factor= 1.0
 
  CCSD correlation energy              -0.273168686289
  MP2-F12 correction (uncoupled)       -0.025103411464
  C*T doubles correction               -0.000842575934
  f12b correction                       0.004271924823


 Total CPU time for triples:      0.25 sec


 RESULTS
 =======

  Reference energy                    -76.065267503574
  F12 singles correction               -0.001012388720

 F12 singles corrections added to reference energy

  New reference energy                -76.066279892293

  F12a singlet correction              -0.023222695004
  F12a triplet correction              -0.002723292394
  F12a total correction                -0.025945987398

 F12a corrections for ansatz F12/3C(FIX) added to CCSD energy
 
  CCSD-F12a singlet pair energy        -0.208385729643
  CCSD-F12a triplet pair energy        -0.090728841125
  CCSD-F12a correlation energy         -0.299114673688

  Triples (T) contribution             -0.008700412301
  Total correlation energy             -0.307815085988

  CCSD-F12a total energy              -76.365394565981
  CCSD[T]-F12a energy                 -76.374384537673
  CCSD-T-F12a energy                  -76.373968997783
 !CCSD(T)-F12a total energy           -76.374094978282

 F12b corrections for ansatz F12/3C(FIX) added to CCSD(T)-F12a energy

  CCSD-F12b singlet pair energy        -0.204425460895
  CCSD-F12b triplet pair energy        -0.090417185049
  CCSD-F12b correlation energy         -0.294842748864

  Triples (T) contribution             -0.008700412301
  Total correlation energy             -0.303543161165

  CCSD-F12b total energy              -76.361122641158
  CCSD[T]-F12b energy                 -76.370112612850
  CCSD-T-F12b energy                  -76.369697072959
 !CCSD(T)-F12b total energy           -76.369823053458

 Timing summary (sec):

 STEP                 CPU(USER)    SYS     CPU(TOT)    WALL
 Transformation          0.06      0.02      0.08      0.07
 CCSD iterations         0.47      0.06      0.53      0.57
 Triples                 0.25      0.00      0.25      0.26
 MP2-F12                 2.30      0.04      2.34      2.34
 F12b energy             0.05      0.01      0.06      0.04

 Program statistics:

 Available memory in ccsd:                49999786
 Min. memory needed in ccsd:                145972
 Max. memory used in ccsd:                  166319
 Max. memory used in cckext:                248663 ( 9 integral passes)



 **********************************************************************************************************************************
 DATASETS  * FILE   NREC   LENGTH (MB)   RECORD NAMES
              1      20       56.27       500      610      700      900      950      970     1000      129      960     1100   
                                          VAR    BASINP    GEOM    SYMINP    ZMAT    AOBASIS   BASIS     P2S    ABASIS      S 
                                         1400     1410     1200     1210     1080     1600     1650     1300     1700     1380   
                                           T        V       H0       H01     AOSYM     SMH    MOLCAS    ERIS     OPER     JKOP   

              2       6        2.97       700     1000      520     2100     7360     7350   
                                         GEOM     BASIS   MCVARS     RHF    F12ABS    EF12   

 PROGRAMS   *        TOTAL   CCSD(T)        HF       INT
 CPU TIMES  *         3.99      3.16      0.24      0.51
 REAL TIME  *         4.61 SEC
 DISK USED  *       124.76 MB      
 **********************************************************************************************************************************

 CCSD(T)-F12/cc-pVTZ-F12 energy=    -76.369823053458

     CCSD(T)-F12        HF-SCF  
    -76.36982305    -76.06526750
 **********************************************************************************************************************************
 Molpro calculation terminated
 Variable memory released
