
 Primary working directories    : /tmp/r2518/22943.maple
 Secondary working directories  : /tmp/r2518/22943.maple
 Wavefunction directory         : /ddn/home1/r2518/wfu/
 Main file repository           : /tmp/r2518/22943.maple/

 SHA1      : d5ffa45e93fdbca01ffc919aa182cfdae0147319
 NAME      : 2015.1.35
 ARCHNAME  : linux/x86_64
 FC        : /opt/intel/composer_xe_2015.1.133/bin/intel64/ifort
 BLASLIB   : -Wl,-_start-group /opt/intel/mkl/lib/intel64/libmkl_intel_ilp64.a /opt/intel/mkl/lib/intel64/libmkl_intel_thread.a /opt/intel/mkl/lib/intel64/libmkl_core.a -Wl,-_end-group
 id        : olemiss

 Nodes     nprocs
 cn059        1

 Using customized tuning parameters: mindgm=1; mindgv=20; mindgc=4; mindgr=1; noblas=0; minvec=7
 default implementation of scratch files=df  

 memory,50,m
 nocompress;
 geomtyp=xyz
 angstrom
 geometry={
 O,0.0,0.0,-0.0657441568
 H,0.05,0.7574590974,0.5217905143
 H,0.0,-0.7574590974,0.4717905143
 }
 basis=cc-pVTZ-F12
 set,charge=0
 set,spin=0
 hf
 {CCSD(T)-F12}

 Variables initialized (889), CPU time= 0.00 sec
 Commands  initialized (702), CPU time= 0.01 sec, 572 directives.
 Default parameters read. Elapsed time= 0.05 sec

 Checking input...
 Passed
1


                                         ***  PROGRAM SYSTEM MOLPRO  ***
                                       Copyright, TTI GmbH Stuttgart, 2015
                                    Version 2015.1 linked Jul  9 2018 13:16:40


 **********************************************************************************************************************************
 LABEL *                                                                                 
  64 bit serial version                                                                  DATE: 28-Aug-19          TIME: 15:37:43  
 **********************************************************************************************************************************

 SHA1:             d5ffa45e93fdbca01ffc919aa182cfdae0147319
 **********************************************************************************************************************************

 Input parameters for SORTINT:

 COMPRESS =    0.000000
 C_FINAL  =    1.000000
 DEBUG    =   -1.000000
 C_SORT1  =    0.000000
 C_SEWARD =    0.000000
 THRESH   =    0.000000
 IO       =  molpro                                                          
 SPRI     =    0.000000
 SETTING GEOMTYP        =    XYZ
 ZUNIT=ANG
 

 Variable memory set to   50000000 words,  buffer space   230000 words

 SETTING BASIS          =    CC-PVTZ-F12
 SETTING CHARGE         =     0.00000000D+00                                  
 SETTING SPIN           =     0.00000000D+00                                  


 Recomputing integrals since basis changed


 Using spherical harmonics

 Library entry O      S cc-pVTZ-F12          selected for orbital group  1
 Library entry O      P cc-pVTZ-F12          selected for orbital group  1
 Library entry O      D cc-pVTZ-F12          selected for orbital group  1
 Library entry O      F cc-pVTZ-F12          selected for orbital group  1
 Library entry H      S cc-pVTZ-F12          selected for orbital group  2
 Library entry H      P cc-pVTZ-F12          selected for orbital group  2
 Library entry H      D cc-pVTZ-F12          selected for orbital group  2


 PROGRAM * SEWARD (Integral evaluation for generally contracted gaussian basis sets)     Author: Roland Lindh, 1990

 Geometry written to block  1 of record 700


 Point group  C1  



 ATOMIC COORDINATES

 NR  ATOM    CHARGE       X              Y              Z

   1  O       8.00    0.000000000    0.000000000   -0.124238451
   2  H       1.00    0.094486306    1.431390245    0.986041166
   3  H       1.00    0.000000000   -1.431390245    0.891554860

 Bond lengths in Bohr (Angstrom)

 1-2  1.813980850  1-3  1.755196309
     ( 0.959917327)     ( 0.928809887)

 Bond angles

  2-1-3  106.81536325

 NUCLEAR CHARGE:                   10
 NUMBER OF PRIMITIVE AOS:         114
 NUMBER OF SYMMETRY AOS:          103
 NUMBER OF CONTRACTIONS:           89   (  89A   )
 NUMBER OF CORE ORBITALS:           1   (   1A   )
 NUMBER OF VALENCE ORBITALS:        6   (   6A   )


 NUCLEAR REPULSION ENERGY    9.31701547

 Eigenvalues of metric

         1 0.203E-03 0.430E-03 0.568E-03 0.689E-03 0.706E-03 0.784E-03 0.156E-02 0.197E-02


 Contracted 2-electron integrals neglected if value below      1.0D-11

        5975430. INTEGRALS WRITTEN OUT IN    1460 BLOCKS ON RECORD 1290 OF FILE 1


 NUMBER OF SORTED TWO-ELECTRON INTEGRALS:    8022015.     BUFFER LENGTH:  32768
 NUMBER OF SEGMENTS:   1  SEGMENT LENGTH:    8022015      RECORD LENGTH: 524288

 Memory used in sort:       8.58 MW

 SORT1 READ     5975430. AND WROTE     5975430. INTEGRALS IN     18 RECORDS. CPU TIME:     0.19 SEC, REAL TIME:     0.26 SEC
 SORT2 READ     5975430. AND WROTE     8022015. INTEGRALS IN      1 RECORDS. CPU TIME:     0.16 SEC, REAL TIME:     0.21 SEC

 FILE SIZES:   FILE 1:   115.9 MBYTE,  FILE 4:    75.5 MBYTE,   TOTAL:    191.4 MBYTE

 OPERATOR DM      FOR CENTER  0  COORDINATES:    0.000000    0.000000    0.000000


 **********************************************************************************************************************************
 DATASETS  * FILE   NREC   LENGTH (MB)   RECORD NAMES
              1      19       70.79       500      610      700      900      950      970     1000      129      960     1100   
                                          VAR    BASINP    GEOM    SYMINP    ZMAT    AOBASIS   BASIS     P2S    ABASIS      S 
                                         1400     1410     1200     1210     1080     1600     1650     1300     1700   
                                           T        V       H0       H01     AOSYM     SMH    MOLCAS    ERIS     OPER   

 PROGRAMS   *        TOTAL       INT
 CPU TIMES  *         0.90      0.80
 REAL TIME  *         1.40 SEC
 DISK USED  *       191.74 MB      
 **********************************************************************************************************************************


 PROGRAM * RHF-SCF (CLOSED SHELL)       Authors: W. Meyer, H.-J. Werner


 NUMBER OF ELECTRONS:       5+    5-    SPACE SYMMETRY=1    SPIN SYMMETRY: Singlet 
 CONVERGENCE THRESHOLDS:    1.00E-05 (Density)    1.00E-07 (Energy)
 MAX. NUMBER OF ITERATIONS:       60
 INTERPOLATION TYPE:            DIIS
 INTERPOLATION STEPS:              2 (START)      1 (STEP)
 LEVEL SHIFTS:                  0.00 (CLOSED)  0.00 (OPEN) 



 Orbital guess generated from atomic densities. Full valence occupancy:    7

 Molecular orbital dump at record        2100.2

 Initial occupancy:   5

 ITERATION    DDIFF          GRAD             ENERGY        2-EL.EN.            DIPOLE MOMENTS         DIIS   ORB.
    1      0.000D+00      0.000D+00       -76.02774716     77.874635    0.04887    0.01009    1.09237    0    start
    2      0.000D+00      0.106D-01       -76.05456602     74.320624    0.02934   -0.00377    0.66296    1    diag
    3      0.112D-01      0.650D-02       -76.06513235     75.867976    0.03406   -0.00238    0.76809    2    diag
    4      0.377D-02      0.614D-03       -76.06531115     75.778872    0.03389   -0.00413    0.76545    3    diag
    5      0.557D-03      0.162D-03       -76.06532769     75.791833    0.03382   -0.00481    0.76441    4    diag
    6      0.186D-03      0.301D-04       -76.06532862     75.791025    0.03380   -0.00503    0.76422    5    diag
    7      0.528D-04      0.572D-05       -76.06532866     75.791159    0.03380   -0.00508    0.76413    6    diag
    8      0.111D-04      0.121D-05       -76.06532866     75.791153    0.03380   -0.00509    0.76409    7    diag
    9      0.202D-05      0.158D-06       -76.06532866     75.791142    0.03380   -0.00509    0.76408    0    orth

 Final occupancy:   5

 !RHF STATE 1.1 Energy                -76.065328663250
 Nuclear energy                         9.31701547
 One-electron energy                 -123.27791508
 Two-electron energy                   37.89557095
 Virial quotient                       -1.00027735
 !RHF STATE 1.1 Dipole moment           0.03379651    -0.00509312     0.76408265
 Dipole moment /Debye                   0.08589653    -0.01294458     1.94197719

 Orbital energies:

         1.1          2.1          3.1          4.1          5.1          6.1          7.1
    -20.561550    -1.358323    -0.729656    -0.582894    -0.510965     0.102116     0.119504

 HOMO      5.1    -0.510965 =     -13.9041eV
 LUMO      6.1     0.102116 =       2.7787eV
 LUMO-HOMO         0.613080 =      16.6828eV


 **********************************************************************************************************************************
 DATASETS  * FILE   NREC   LENGTH (MB)   RECORD NAMES
              1      19       70.79       500      610      700      900      950      970     1000      129      960     1100   
                                          VAR    BASINP    GEOM    SYMINP    ZMAT    AOBASIS   BASIS     P2S    ABASIS      S 
                                         1400     1410     1200     1210     1080     1600     1650     1300     1700   
                                           T        V       H0       H01     AOSYM     SMH    MOLCAS    ERIS     OPER   

              2       4        2.95       700     1000      520     2100   
                                         GEOM     BASIS   MCVARS     RHF  

 PROGRAMS   *        TOTAL        HF       INT
 CPU TIMES  *         1.60      0.70      0.80
 REAL TIME  *         2.27 SEC
 DISK USED  *       191.74 MB      
 **********************************************************************************************************************************


 PROGRAM * CCSD (Closed-shell coupled cluster)     Authors: C. Hampel, H.-J. Werner, 1991, M. Deegan, P.J. Knowles, 1992

                                  CCSD-F12 implementation by  H.-J. Werner, 2007

                   Density fitting integral evaluation by F.R. Manby, 2003,2007, G. Knizia, 2010

 Basis set AUG-CC-PVTZ/JKFIT generated.  Number of basis functions:   196 
 Basis set CC-PVTZ-F12/OPTRI generated.  Number of basis functions:   157 
 Basis set AUG-CC-PVTZ/MP2FIT generated. Number of basis functions:   198 

 Convergence thresholds:  THRVAR = 1.00D-08  THRDEN = 1.00D-06

 CCSD(T)     terms to be evaluated (factor= 1.000)


 Number of core orbitals:           1 (   1 )
 Number of closed-shell orbitals:   4 (   4 )
 Number of external orbitals:      84 (  84 )

 Molecular orbitals read from record     2100.2  Type=RHF/CANONICAL (state 1.1)

 MP2-F12 correlation treatment (H.-J. Werner, 2006)
 ==================================================

 Using MP2-F12 with ansatz 3C(FIX)

 Using projected zeroth-order Hamiltonian (+Z)

 FOCKRIB=T FOCKRIC=T FOCKRIP=T CABSP=T CABSA=T CABSK=T CABSF=T GBC=F EBC=F DMAT=T NOFIK=T NOPAO=1 SOLVE=-1  USEPAO=0
 EXCH_A= T EXCH_B= F EXCH_C= F EXCH_P= F
 
 Geminal basis:    OPTFULL  GEM_TYPE=SLATER  BETA=1.0  NGEM=6

 Optimizing Gaussian exponents for each gem_beta

 Geminal optimization for beta= 1.0000
 Weight function:   m=0, omega= 1.4646

 Augmented Hessian optimization of geminal fit. Trust ratio= 0.40000
 Convergence reached after   2 iterations. Final gradient= 8.41D-16, Step= 4.29D-06, Delta= 1.28D-09
 
 Alpha:                 0.19532     0.81920     2.85917     9.50073    35.69989   197.79328
 Coeff:                 0.27070     0.30552     0.18297     0.10986     0.06810     0.04224
 

 All pairs explicitly correlated. Number of r12-pairs:           10

 Excluding core orbitals from MO domains
 
 AO(A)-basis ORBITAL           loaded. Number of functions:      89
 RI(R)-basis CC-PVTZ-F12/OPTRI loaded. Number of functions:     157
 DF-basis AUG-CC-PVTZ/JKFIT    loaded. Number of functions:     196

 Screening thresholds:   THRAO=  1.00D-10  THRMO=  1.00D-09  THRPROD=  1.00D-09
                         THRSW=  1.00D-05  THROV=  1.00D-12  THRAOF12=   1.00D-08

 CPU time for Fock operators                      0.41 sec
 
 Construction of ABS:
 Smallest eigenvalue of S          7.25E-04  (threshold= 1.00E-08)
 Ratio eigmin/eigmax               1.21E-04  (threshold= 1.00E-09)
 Smallest eigenvalue of S kept     7.25E-04  (threshold= 7.25E-04, 0 functions deleted, 157 kept)
 
 Construction of CABS:
 Smallest eigenvalue of S          1.71E-06  (threshold= 1.00E-08)
 Ratio eigmin/eigmax               1.71E-06  (threshold= 1.00E-09)
 Smallest eigenvalue of S kept     1.71E-06  (threshold= 1.71E-06, 0 functions deleted, 157 kept)
 
 CPU time for CABS singles                        0.01 sec

 CABS-singles contribution of  -0.00103523 patched into reference energy.
 New reference energy         -76.06636389
 
 AO(A)-basis ORBITAL           loaded. Number of functions:      89
 RI(R)-basis CC-PVTZ-F12/OPTRI loaded. Number of functions:     157
 DF-basis AUG-CC-PVTZ/MP2FIT   loaded. Number of functions:     198

 Screening thresholds:   THRAO=  1.00D-10  THRMO=  1.00D-09  THRPROD=  1.00D-09
                         THRSW=  1.00D-05  THROV=  1.00D-12  THRAOF12=   1.00D-08

 CPU time for 3-index integral evaluation         0.56 sec
 CPU time for first  half transformation          0.05 sec ( 3527.2 MFLOP/sec)
 CPU time for second half transformation          0.01 sec (  493.4 MFLOP/sec)
 CPU time for sorting                             0.01 sec
 CPU time for assembly                            0.02 sec (26756.3 MFLOP/sec)
 CPU time for tranop_f12                          0.04 sec (16298.2 MFLOP/sec)
 CPU time for f12 integrals (total)               0.75 sec, Elapsed time:      0.78 sec
 CPU time for f12 matrices (total)                0.01 sec, Elapsed time:      0.02 sec

 Diagonal F12 approximation with fixed coefficients:  TSING= 0.500,  TTRIP= 0.250 (scaled by -1/beta)

 DF-MP2-F12 energy corrections:
 ==============================
 Approx.                                    Singlet             Triplet             Total
 DF-MP2-F12/3*C(DX,FIX)                -0.025356632645     -0.003037228016     -0.028393860661
 DF-MP2-F12/3*C(FIX)                   -0.023535733478     -0.002741746727     -0.026277480205
 DF-MP2-F12/3C(FIX)                    -0.023458961046     -0.002838041722     -0.026297002768

 DF-MP2-F12 correlation energies:
 ================================
 Approx.                                    Singlet             Triplet             Ecorr            Total Energy
 DF-MP2                                -0.173017042761     -0.098775103875     -0.271792146636    -76.338156039257
 DF-MP2-F12/3*C(DX,FIX)                -0.198373675406     -0.101812331891     -0.300186007296    -76.366549899918
 DF-MP2-F12/3*C(FIX)                   -0.196552776239     -0.101516850602     -0.298069626841    -76.364433519463
 DF-MP2-F12/3C(FIX)                    -0.196476003807     -0.101613145597     -0.298089149404    -76.364453042025

 SCS-DF-MP2 energies (F_SING= 1.20000  F_TRIP= 0.62222  F_PARALLEL= 0.33333):
 ============================================================================
 SCS-DF-MP2                            -0.269080515946    -76.335444408568
 SCS-DF-MP2-F12/3*C(DX,FIX)            -0.301398305885    -76.367762198507
 SCS-DF-MP2-F12/3*C(FIX)               -0.299029371861    -76.365393264483
 SCS-DF-MP2-F12/3C(FIX)                -0.298997161828    -76.365361054450
 Symmetry transformation completed.

 Number of N-1 electron functions:               4
 Number of N-2 electron functions:              10
 Number of singly external CSFs:               336
 Number of doubly external CSFs:             56616
 Total number of CSFs:                       56953

 Length of J-op  integral file:               9.11 MB
 Length of K-op  integral file:              14.70 MB
 Length of 3-ext integral record:             0.00 MB

 Memory could be reduced to 4.35 Mwords without degradation in triples

 Integral transformation finished. Total CPU:   0.19 sec, npass=  1  Memory used:   2.09 MW

 Reference energy:                    -76.06636389

 Adding F12 terms to K(Cij), methodcc=6,  factor= 1.0

 ITER.      SQ.NORM     CORR.ENERGY   TOTAL ENERGY   ENERGY CHANGE        DEN1      VAR(S)    VAR(P)  DIIS     TIME  TIME/IT
   1      1.06050532    -0.27229993   -76.33866383    -0.00046541     0.00512102  0.68D-03  0.91D-03  1  1     1.60     0.16
   2      1.06356001    -0.27202922   -76.33839311     0.00027071    -0.00436780  0.12D-04  0.93D-04  2  2     1.75     0.16
   3      1.06460254    -0.27214546   -76.33850935    -0.00011624    -0.00074114  0.78D-05  0.59D-05  3  3     1.91     0.17
   4      1.06506955    -0.27216537   -76.33852926    -0.00001990    -0.00031797  0.38D-06  0.46D-06  4  4     2.07     0.17
   5      1.06514907    -0.27216384   -76.33852773     0.00000153    -0.00001717  0.11D-06  0.27D-07  5  5     2.22     0.17
   6      1.06517051    -0.27216265   -76.33852654     0.00000119    -0.00000354  0.90D-08  0.28D-08  6  6     2.37     0.17
   7      1.06517607    -0.27216231   -76.33852620     0.00000035    -0.00000128  0.76D-09  0.21D-09  6  1     2.51     0.17
   8      1.06517735    -0.27216236   -76.33852625    -0.00000006    -0.00000001  0.56D-10  0.22D-10  6  2     2.66     0.17

 Norm of t1 vector:      0.03389361      S-energy:    -0.00000009      T1 diagnostic:  0.00847340
                                                                       D1 diagnostic:  0.01683004

 Adding energy correction from Wij-K(Fij), methodcc=6  factor= 1.0
 
  CCSD correlation energy              -0.272162361691
  MP2-F12 correction (uncoupled)       -0.025178736750
  C*T doubles correction               -0.000841739736
  f12b correction                       0.004266745623


 Total CPU time for triples:      0.84 sec


 RESULTS
 =======

  Reference energy                    -76.065328663250
  F12 singles correction               -0.001035229371

 F12 singles corrections added to reference energy

  New reference energy                -76.066363892622

  F12a singlet correction              -0.023288308438
  F12a triplet correction              -0.002732168048
  F12a total correction                -0.026020476486

 F12a corrections for ansatz F12/3C(FIX) added to CCSD energy
 
  CCSD-F12a singlet pair energy        -0.207572682889
  CCSD-F12a triplet pair energy        -0.090610060591
  CCSD-F12a correlation energy         -0.298182838177

  Triples (T) contribution             -0.008562212274
  Total correlation energy             -0.306745050451

  CCSD-F12a total energy              -76.364546730799
  CCSD[T]-F12a energy                 -76.373386933355
  CCSD-T-F12a energy                  -76.372988793498
 !CCSD(T)-F12a total energy           -76.373108943073

 F12b corrections for ansatz F12/3C(FIX) added to CCSD(T)-F12a energy

  CCSD-F12b singlet pair energy        -0.203618189359
  CCSD-F12b triplet pair energy        -0.090297808499
  CCSD-F12b correlation energy         -0.293916092554

  Triples (T) contribution             -0.008562212274
  Total correlation energy             -0.302478304829

  CCSD-F12b total energy              -76.360279985176
  CCSD[T]-F12b energy                 -76.369120187733
  CCSD-T-F12b energy                  -76.368722047875
 !CCSD(T)-F12b total energy           -76.368842197450

 Timing summary (sec):

 STEP                 CPU(USER)    SYS     CPU(TOT)    WALL
 Transformation          0.20      0.02      0.22      0.24
 CCSD iterations         1.24      0.17      1.41      1.41
 Triples                 0.84      0.04      0.88      0.87
 MP2-F12                 1.22      0.06      1.28      1.29
 F12b energy             0.12      0.02      0.14      0.14

 Program statistics:

 Available memory in ccsd:                49999786
 Min. memory needed in ccsd:                269472
 Max. memory used in ccsd:                  308684
 Max. memory used in cckext:                227914 ( 9 integral passes)



 **********************************************************************************************************************************
 DATASETS  * FILE   NREC   LENGTH (MB)   RECORD NAMES
              1      20       81.47       500      610      700      900      950      970     1000      129      960     1100   
                                          VAR    BASINP    GEOM    SYMINP    ZMAT    AOBASIS   BASIS     P2S    ABASIS      S 
                                         1400     1410     1200     1210     1080     1600     1650     1300     1700     1380   
                                           T        V       H0       H01     AOSYM     SMH    MOLCAS    ERIS     OPER     JKOP   

              2       6        3.11       700     1000      520     2100     7360     7350   
                                         GEOM     BASIS   MCVARS     RHF    F12ABS    EF12   

 PROGRAMS   *        TOTAL   CCSD(T)        HF       INT
 CPU TIMES  *         5.25      3.65      0.70      0.80
 REAL TIME  *         6.56 SEC
 DISK USED  *       191.74 MB      
 **********************************************************************************************************************************

 CCSD(T)-F12/cc-pVTZ-F12 energy=    -76.368842197450

     CCSD(T)-F12        HF-SCF  
    -76.36884220    -76.06532866
 **********************************************************************************************************************************
 Molpro calculation terminated
 Variable memory released
