
 Primary working directories    : /tmp/r2518/22839.maple
 Secondary working directories  : /tmp/r2518/22839.maple
 Wavefunction directory         : /ddn/home1/r2518/wfu/
 Main file repository           : /tmp/r2518/22839.maple/

 SHA1      : d5ffa45e93fdbca01ffc919aa182cfdae0147319
 NAME      : 2015.1.35
 ARCHNAME  : linux/x86_64
 FC        : /opt/intel/composer_xe_2015.1.133/bin/intel64/ifort
 BLASLIB   : -Wl,-_start-group /opt/intel/mkl/lib/intel64/libmkl_intel_ilp64.a /opt/intel/mkl/lib/intel64/libmkl_intel_thread.a /opt/intel/mkl/lib/intel64/libmkl_core.a -Wl,-_end-group
 id        : olemiss

 Nodes     nprocs
 cn055        1

 Using customized tuning parameters: mindgm=1; mindgv=20; mindgc=4; mindgr=1; noblas=0; minvec=7
 default implementation of scratch files=df  

 memory,50,m
 nocompress;
 geomtyp=xyz
 angstrom
 geometry={
 O,0.0,0.0,-0.015744156799999992
 H,0.0,0.7574590974,0.5217905143
 H,0.0,-0.7074590973999999,0.5217905143
 }
 basis=cc-pVTZ-F12
 set,charge=0
 set,spin=0
 hf
 {CCSD(T)-F12}

 Variables initialized (889), CPU time= 0.01 sec
 Commands  initialized (702), CPU time= 0.01 sec, 572 directives.
 Default parameters read. Elapsed time= 0.07 sec

 Checking input...
 Passed
1


                                         ***  PROGRAM SYSTEM MOLPRO  ***
                                       Copyright, TTI GmbH Stuttgart, 2015
                                    Version 2015.1 linked Jul  9 2018 13:16:40


 **********************************************************************************************************************************
 LABEL *                                                                                 
  64 bit serial version                                                                  DATE: 28-Aug-19          TIME: 15:37:26  
 **********************************************************************************************************************************

 SHA1:             d5ffa45e93fdbca01ffc919aa182cfdae0147319
 **********************************************************************************************************************************

 Input parameters for SORTINT:

 COMPRESS =    0.000000
 C_FINAL  =    1.000000
 DEBUG    =   -1.000000
 C_SORT1  =    0.000000
 C_SEWARD =    0.000000
 THRESH   =    0.000000
 IO       =  molpro                                                          
 SPRI     =    0.000000
 SETTING GEOMTYP        =    XYZ
 ZUNIT=ANG
 

 Variable memory set to   50000000 words,  buffer space   230000 words

 SETTING BASIS          =    CC-PVTZ-F12
 SETTING CHARGE         =     0.00000000D+00                                  
 SETTING SPIN           =     0.00000000D+00                                  


 Recomputing integrals since basis changed


 Using spherical harmonics

 Library entry O      S cc-pVTZ-F12          selected for orbital group  1
 Library entry O      P cc-pVTZ-F12          selected for orbital group  1
 Library entry O      D cc-pVTZ-F12          selected for orbital group  1
 Library entry O      F cc-pVTZ-F12          selected for orbital group  1
 Library entry H      S cc-pVTZ-F12          selected for orbital group  2
 Library entry H      P cc-pVTZ-F12          selected for orbital group  2
 Library entry H      D cc-pVTZ-F12          selected for orbital group  2


 PROGRAM * SEWARD (Integral evaluation for generally contracted gaussian basis sets)     Author: Roland Lindh, 1990

 Geometry written to block  1 of record 700


 Point group  Cs  



 ATOMIC COORDINATES

 NR  ATOM    CHARGE       X              Y              Z

   1  O       8.00    0.000000000    0.000000000   -0.029752144
   2  H       1.00    0.000000000    1.431390245    0.986041166
   3  H       1.00    0.000000000   -1.336903938    0.986041166

 Bond lengths in Bohr (Angstrom)

 1-2  1.755196309  1-3  1.679031921
     ( 0.928809887)     ( 0.888505429)

 Bond angles

  2-1-3  107.41044881

 NUCLEAR CHARGE:                   10
 NUMBER OF PRIMITIVE AOS:         114
 NUMBER OF SYMMETRY AOS:          103
 NUMBER OF CONTRACTIONS:           89   (  61A'  +  28A"  )
 NUMBER OF CORE ORBITALS:           1   (   1A'  +   0A"  )
 NUMBER OF VALENCE ORBITALS:        6   (   5A'  +   1A"  )


 NUCLEAR REPULSION ENERGY    9.68377834

 Eigenvalues of metric

         1 0.177E-03 0.388E-03 0.554E-03 0.696E-03 0.759E-03 0.147E-02 0.186E-02 0.196E-02
         2 0.684E-03 0.614E-02 0.819E-02 0.399E-01 0.824E-01 0.877E-01 0.109E+00 0.177E+00


 Contracted 2-electron integrals neglected if value below      1.0D-11

        3628564. INTEGRALS WRITTEN OUT IN     887 BLOCKS ON RECORD 1290 OF FILE 1


 NUMBER OF SORTED TWO-ELECTRON INTEGRALS:    4174745.     BUFFER LENGTH:  32768
 NUMBER OF SEGMENTS:   1  SEGMENT LENGTH:    4174745      RECORD LENGTH: 524288

 Memory used in sort:       4.73 MW

 SORT1 READ     3628564. AND WROTE     3690288. INTEGRALS IN     11 RECORDS. CPU TIME:     0.11 SEC, REAL TIME:     0.15 SEC
 SORT2 READ     3690288. AND WROTE     4174745. INTEGRALS IN      1 RECORDS. CPU TIME:     0.10 SEC, REAL TIME:     0.13 SEC

 FILE SIZES:   FILE 1:    78.3 MBYTE,  FILE 4:    46.2 MBYTE,   TOTAL:    124.4 MBYTE

 OPERATOR DM      FOR CENTER  0  COORDINATES:    0.000000    0.000000    0.000000


 **********************************************************************************************************************************
 DATASETS  * FILE   NREC   LENGTH (MB)   RECORD NAMES
              1      19       50.78       500      610      700      900      950      970     1000      129      960     1100   
                                          VAR    BASINP    GEOM    SYMINP    ZMAT    AOBASIS   BASIS     P2S    ABASIS      S 
                                         1400     1410     1200     1210     1080     1600     1650     1300     1700   
                                           T        V       H0       H01     AOSYM     SMH    MOLCAS    ERIS     OPER   

 PROGRAMS   *        TOTAL       INT
 CPU TIMES  *         0.71      0.60
 REAL TIME  *         1.36 SEC
 DISK USED  *       124.76 MB      
 **********************************************************************************************************************************


 PROGRAM * RHF-SCF (CLOSED SHELL)       Authors: W. Meyer, H.-J. Werner


 NUMBER OF ELECTRONS:       5+    5-
 CONVERGENCE THRESHOLDS:    1.00E-05 (Density)    1.00E-07 (Energy)
 MAX. NUMBER OF ITERATIONS:       60
 INTERPOLATION TYPE:            DIIS
 INTERPOLATION STEPS:              2 (START)      1 (STEP)
 LEVEL SHIFTS:                  0.00 (CLOSED)  0.00 (OPEN) 



 Orbital guess generated from atomic densities. Full valence occupancy:    6   1

 Molecular orbital dump at record        2100.2

 Initial occupancy:   4   1

 ITERATION    DDIFF          GRAD             ENERGY        2-EL.EN.            DIPOLE MOMENTS         DIIS   ORB.
    1      0.000D+00      0.000D+00       -76.02534210     78.420101    0.00000    0.06093    1.04267    0    start
    2      0.000D+00      0.137D-01       -76.05242497     74.933464    0.00000    0.02504    0.65448    1    diag
    3      0.151D-01      0.812D-02       -76.06224953     76.418859    0.00000    0.03121    0.74942    2    diag
    4      0.488D-02      0.769D-03       -76.06241647     76.333594    0.00000    0.02913    0.74894    3    diag
    5      0.742D-03      0.192D-03       -76.06242982     76.345246    0.00000    0.02839    0.74861    4    diag
    6      0.233D-03      0.332D-04       -76.06243045     76.344640    0.00000    0.02817    0.74870    5    diag
    7      0.653D-04      0.555D-05       -76.06243047     76.344745    0.00000    0.02812    0.74867    6    diag
    8      0.128D-04      0.123D-05       -76.06243047     76.344745    0.00000    0.02811    0.74864    7    diag
    9      0.207D-05      0.171D-06       -76.06243047     76.344735    0.00000    0.02811    0.74864    0    orth

 Final occupancy:   4   1

 !RHF STATE 1.1 Energy                -76.062430471641
 Nuclear energy                         9.68377834
 One-electron energy                 -123.91857636
 Two-electron energy                   38.17236755
 Virial quotient                       -0.99816955
 !RHF STATE 1.1 Dipole moment           0.00000000     0.02810756     0.74863668
 Dipole moment /Debye                   0.00000000     0.07143761     1.90272000

 Orbital energies:

         1.1          2.1          3.1          4.1          5.1          6.1
    -20.554729    -1.377910    -0.751751    -0.588417     0.100470     0.118252

         1.2          2.2          3.2
     -0.514113     0.144713     0.480710

 HOMO      1.2    -0.514113 =     -13.9897eV
 LUMO      5.1     0.100470 =       2.7339eV
 LUMO-HOMO         0.614583 =      16.7237eV


 **********************************************************************************************************************************
 DATASETS  * FILE   NREC   LENGTH (MB)   RECORD NAMES
              1      19       50.78       500      610      700      900      950      970     1000      129      960     1100   
                                          VAR    BASINP    GEOM    SYMINP    ZMAT    AOBASIS   BASIS     P2S    ABASIS      S 
                                         1400     1410     1200     1210     1080     1600     1650     1300     1700   
                                           T        V       H0       H01     AOSYM     SMH    MOLCAS    ERIS     OPER   

              2       4        2.88       700     1000      520     2100   
                                         GEOM     BASIS   MCVARS     RHF  

 PROGRAMS   *        TOTAL        HF       INT
 CPU TIMES  *         1.00      0.29      0.60
 REAL TIME  *         1.72 SEC
 DISK USED  *       124.76 MB      
 **********************************************************************************************************************************


 PROGRAM * CCSD (Closed-shell coupled cluster)     Authors: C. Hampel, H.-J. Werner, 1991, M. Deegan, P.J. Knowles, 1992

                                  CCSD-F12 implementation by  H.-J. Werner, 2007

                   Density fitting integral evaluation by F.R. Manby, 2003,2007, G. Knizia, 2010

 Basis set AUG-CC-PVTZ/JKFIT generated.  Number of basis functions:   196 
 Basis set CC-PVTZ-F12/OPTRI generated.  Number of basis functions:   157 
 Basis set AUG-CC-PVTZ/MP2FIT generated. Number of basis functions:   198 

 Convergence thresholds:  THRVAR = 1.00D-08  THRDEN = 1.00D-06

 CCSD(T)     terms to be evaluated (factor= 1.000)


 Number of core orbitals:           1 (   1   0 )
 Number of closed-shell orbitals:   4 (   3   1 )
 Number of external orbitals:      84 (  57  27 )

 Molecular orbitals read from record     2100.2  Type=RHF/CANONICAL (state 1.1)

 MP2-F12 correlation treatment (H.-J. Werner, 2006)
 ==================================================

 Using MP2-F12 with ansatz 3C(FIX)

 Using projected zeroth-order Hamiltonian (+Z)

 FOCKRIB=T FOCKRIC=T FOCKRIP=T CABSP=T CABSA=T CABSK=T CABSF=T GBC=F EBC=F DMAT=T NOFIK=T NOPAO=1 SOLVE=-1  USEPAO=0
 EXCH_A= T EXCH_B= F EXCH_C= F EXCH_P= F
 
 Geminal basis:    OPTFULL  GEM_TYPE=SLATER  BETA=1.0  NGEM=6

 Optimizing Gaussian exponents for each gem_beta

 Geminal optimization for beta= 1.0000
 Weight function:   m=0, omega= 1.4646

 Augmented Hessian optimization of geminal fit. Trust ratio= 0.40000
 Convergence reached after   2 iterations. Final gradient= 8.41D-16, Step= 4.29D-06, Delta= 1.28D-09
 
 Alpha:                 0.19532     0.81920     2.85917     9.50073    35.69989   197.79328
 Coeff:                 0.27070     0.30552     0.18297     0.10986     0.06810     0.04224
 

 Symmetry turned off. Reference energy:        -76.062430471641

 All pairs explicitly correlated. Number of r12-pairs:           10

 Excluding core orbitals from MO domains
 
 AO(A)-basis ORBITAL           loaded. Number of functions:      89
 RI(R)-basis CC-PVTZ-F12/OPTRI loaded. Number of functions:     157
 DF-basis AUG-CC-PVTZ/JKFIT    loaded. Number of functions:     196

 Screening thresholds:   THRAO=  1.00D-10  THRMO=  1.00D-09  THRPROD=  1.00D-09
                         THRSW=  1.00D-05  THROV=  1.00D-12  THRAOF12=   1.00D-08

 CPU time for Fock operators                      1.05 sec
 
 Construction of ABS:
 Smallest eigenvalue of S          6.37E-04  (threshold= 1.00E-08)
 Ratio eigmin/eigmax               1.04E-04  (threshold= 1.00E-09)
 Smallest eigenvalue of S kept     6.37E-04  (threshold= 6.37E-04, 0 functions deleted, 157 kept)
 
 Construction of CABS:
 Smallest eigenvalue of S          1.42E-06  (threshold= 1.00E-08)
 Ratio eigmin/eigmax               1.42E-06  (threshold= 1.00E-09)
 Smallest eigenvalue of S kept     1.42E-06  (threshold= 1.42E-06, 0 functions deleted, 157 kept)
 
 CPU time for CABS singles                        0.01 sec

 CABS-singles contribution of  -0.00111230 patched into reference energy.
 New reference energy         -76.06354277
 
 AO(A)-basis ORBITAL           loaded. Number of functions:      89
 RI(R)-basis CC-PVTZ-F12/OPTRI loaded. Number of functions:     157
 DF-basis AUG-CC-PVTZ/MP2FIT   loaded. Number of functions:     198

 Screening thresholds:   THRAO=  1.00D-10  THRMO=  1.00D-09  THRPROD=  1.00D-09
                         THRSW=  1.00D-05  THROV=  1.00D-12  THRAOF12=   1.00D-08

 CPU time for 3-index integral evaluation         0.58 sec
 CPU time for first  half transformation          0.03 sec ( 5878.7 MFLOP/sec)
 CPU time for tilde quantities                    0.02 sec ( 5410.2 MFLOP/sec)
 CPU time for tranop_f12                          0.03 sec (21731.0 MFLOP/sec)
 CPU time for f12 integrals (total)               1.55 sec, Elapsed time:      1.59 sec
 CPU time for f12 matrices (total)                0.01 sec, Elapsed time:      0.02 sec

 Diagonal F12 approximation with fixed coefficients:  TSING= 0.500,  TTRIP= 0.250 (scaled by -1/beta)

 DF-MP2-F12 energy corrections:
 ==============================
 Approx.                                    Singlet             Triplet             Total
 DF-MP2-F12/3*C(DX,FIX)                -0.025587204257     -0.003078795979     -0.028666000236
 DF-MP2-F12/3*C(FIX)                   -0.023703926122     -0.002771251808     -0.026475177930
 DF-MP2-F12/3C(FIX)                    -0.023622254046     -0.002867596665     -0.026489850710

 DF-MP2-F12 correlation energies:
 ================================
 Approx.                                    Singlet             Triplet             Ecorr            Total Energy
 DF-MP2                                -0.171184197944     -0.097812633099     -0.268996831042    -76.332539602193
 DF-MP2-F12/3*C(DX,FIX)                -0.196771402201     -0.100891429077     -0.297662831278    -76.361205602429
 DF-MP2-F12/3*C(FIX)                   -0.194888124065     -0.100583884907     -0.295472008972    -76.359014780123
 DF-MP2-F12/3C(FIX)                    -0.194806451989     -0.100680229763     -0.295486681753    -76.359029452904

 SCS-DF-MP2 energies (F_SING= 1.20000  F_TRIP= 0.62222  F_PARALLEL= 0.33333):
 ============================================================================
 SCS-DF-MP2                            -0.266282231461    -76.329825002612
 SCS-DF-MP2-F12/3*C(DX,FIX)            -0.298902571845    -76.362445342996
 SCS-DF-MP2-F12/3*C(FIX)               -0.296451277265    -76.359994048416
 SCS-DF-MP2-F12/3C(FIX)                -0.296413218684    -76.359955989835

 Symmetry restored.
 Symmetry transformation completed.

 Number of N-1 electron functions:               4
 Number of N-2 electron functions:              10
 Number of singly external CSFs:               198
 Number of doubly external CSFs:             29292
 Total number of CSFs:                       29491

 Length of J-op  integral file:               8.97 MB
 Length of K-op  integral file:              13.62 MB
 Length of 3-ext integral record:             0.00 MB

 Memory could be reduced to 2.37 Mwords without degradation in triples

 Integral transformation finished. Total CPU:   0.07 sec, npass=  1  Memory used:   0.62 MW

 Reference energy:                    -76.06354277

 Adding F12 terms to K(Cij), methodcc=6,  factor= 1.0

 ITER.      SQ.NORM     CORR.ENERGY   TOTAL ENERGY   ENERGY CHANGE        DEN1      VAR(S)    VAR(P)  DIIS     TIME  TIME/IT
   1      1.05838536    -0.26987160   -76.33341437    -0.00083300     0.00437359  0.60D-03  0.81D-03  1  1     2.95     0.07
   2      1.06113106    -0.26958417   -76.33312694     0.00028743    -0.00407153  0.97D-05  0.80D-04  2  2     3.00     0.07
   3      1.06202430    -0.26968414   -76.33322691    -0.00009997    -0.00066720  0.66D-05  0.48D-05  3  3     3.07     0.07
   4      1.06241548    -0.26970195   -76.33324472    -0.00001781    -0.00027738  0.32D-06  0.37D-06  4  4     3.13     0.07
   5      1.06248216    -0.26970048   -76.33324325     0.00000146    -0.00001412  0.87D-07  0.21D-07  5  5     3.20     0.07
   6      1.06250006    -0.26969943   -76.33324220     0.00000106    -0.00000289  0.73D-08  0.21D-08  6  6     3.26     0.07
   7      1.06250476    -0.26969912   -76.33324189     0.00000031    -0.00000111  0.58D-09  0.16D-09  6  1     3.33     0.07
   8      1.06250582    -0.26969917   -76.33324194    -0.00000005    -0.00000000  0.40D-10  0.15D-10  6  2     3.40     0.08

 Norm of t1 vector:      0.03171389      S-energy:    -0.00000007      T1 diagnostic:  0.00792847
                                                                       D1 diagnostic:  0.01556151

 Adding energy correction from Wij-K(Fij), methodcc=6  factor= 1.0
 
  CCSD correlation energy              -0.269699171070
  MP2-F12 correction (uncoupled)       -0.025381480934
  C*T doubles correction               -0.000842099822
  f12b correction                       0.004248806523


 Total CPU time for triples:      0.32 sec


 RESULTS
 =======

  Reference energy                    -76.062430471641
  F12 singles correction               -0.001112299510

 F12 singles corrections added to reference energy

  New reference energy                -76.063542771151

  F12a singlet correction              -0.023461629593
  F12a triplet correction              -0.002761951164
  F12a total correction                -0.026223580757

 F12a corrections for ansatz F12/3C(FIX) added to CCSD energy
 
  CCSD-F12a singlet pair energy        -0.205560348549
  CCSD-F12a triplet pair energy        -0.090362332619
  CCSD-F12a correlation energy         -0.295922751827

  Triples (T) contribution             -0.008214143438
  Total correlation energy             -0.304136895265

  CCSD-F12a total energy              -76.359465522978
  CCSD[T]-F12a energy                 -76.367930337188
  CCSD-T-F12a energy                  -76.367572910912
 !CCSD(T)-F12a total energy           -76.367679666416

 F12b corrections for ansatz F12/3C(FIX) added to CCSD(T)-F12a energy

  CCSD-F12b singlet pair energy        -0.201625500711
  CCSD-F12b triplet pair energy        -0.090048373934
  CCSD-F12b correlation energy         -0.291673945304

  Triples (T) contribution             -0.008214143438
  Total correlation energy             -0.299888088742

  CCSD-F12b total energy              -76.355216716455
  CCSD[T]-F12b energy                 -76.363681530666
  CCSD-T-F12b energy                  -76.363324104389
 !CCSD(T)-F12b total energy           -76.363430859893

 Timing summary (sec):

 STEP                 CPU(USER)    SYS     CPU(TOT)    WALL
 Transformation          0.07      0.01      0.08      0.09
 CCSD iterations         0.57      0.11      0.68      0.66
 Triples                 0.32      0.01      0.33      0.33
 MP2-F12                 2.76      0.08      2.84      2.85
 F12b energy             0.04      0.01      0.05      0.06

 Program statistics:

 Available memory in ccsd:                49999786
 Min. memory needed in ccsd:                145972
 Max. memory used in ccsd:                  166319
 Max. memory used in cckext:                248663 ( 9 integral passes)



 **********************************************************************************************************************************
 DATASETS  * FILE   NREC   LENGTH (MB)   RECORD NAMES
              1      20       56.28       500      610      700      900      950      970     1000      129      960     1100   
                                          VAR    BASINP    GEOM    SYMINP    ZMAT    AOBASIS   BASIS     P2S    ABASIS      S 
                                         1400     1410     1200     1210     1080     1600     1650     1300     1700     1380   
                                           T        V       H0       H01     AOSYM     SMH    MOLCAS    ERIS     OPER     JKOP   

              2       6        2.97       700     1000      520     2100     7360     7350   
                                         GEOM     BASIS   MCVARS     RHF    F12ABS    EF12   

 PROGRAMS   *        TOTAL   CCSD(T)        HF       INT
 CPU TIMES  *         4.80      3.80      0.29      0.60
 REAL TIME  *         6.26 SEC
 DISK USED  *       124.76 MB      
 **********************************************************************************************************************************

 CCSD(T)-F12/cc-pVTZ-F12 energy=    -76.363430859893

     CCSD(T)-F12        HF-SCF  
    -76.36343086    -76.06243047
 **********************************************************************************************************************************
 Molpro calculation terminated
 Variable memory released
