
 Primary working directories    : /tmp/r2518/14644.maple
 Secondary working directories  : /tmp/r2518/14644.maple
 Wavefunction directory         : /ddn/home1/r2518/wfu/
 Main file repository           : /tmp/r2518/14644.maple/

 SHA1      : d5ffa45e93fdbca01ffc919aa182cfdae0147319
 NAME      : 2015.1.35
 ARCHNAME  : linux/x86_64
 FC        : /opt/intel/composer_xe_2015.1.133/bin/intel64/ifort
 BLASLIB   : -Wl,-_start-group /opt/intel/mkl/lib/intel64/libmkl_intel_ilp64.a /opt/intel/mkl/lib/intel64/libmkl_intel_thread.a /opt/intel/mkl/lib/intel64/libmkl_core.a -Wl,-_end-group
 id        : olemiss

 Nodes     nprocs
 cn060        1

 Using customized tuning parameters: mindgm=1; mindgv=20; mindgc=4; mindgr=1; noblas=0; minvec=7
 default implementation of scratch files=df  

 memory,50,m
 nocompress;
 geomtyp=xyz
 angstrom
 geometry={
 O,0.0,0.05,-0.0657441568
 H,0.0,0.7574590974,0.5217905143
 H,0.0,-0.7574590974,0.5217905143
 }
 basis=cc-pVTZ-F12
 set,charge=0
 set,spin=0
 hf
 {CCSD(T)-F12}

 Variables initialized (889), CPU time= 0.00 sec
 Commands  initialized (702), CPU time= 0.01 sec, 572 directives.
 Default parameters read. Elapsed time= 0.20 sec

 Checking input...
 Passed
1


                                         ***  PROGRAM SYSTEM MOLPRO  ***
                                       Copyright, TTI GmbH Stuttgart, 2015
                                    Version 2015.1 linked Jul  9 2018 13:16:40


 **********************************************************************************************************************************
 LABEL *                                                                                 
  64 bit serial version                                                                  DATE: 24-Aug-19          TIME: 16:30:50  
 **********************************************************************************************************************************

 SHA1:             d5ffa45e93fdbca01ffc919aa182cfdae0147319
 **********************************************************************************************************************************

 Input parameters for SORTINT:

 COMPRESS =    0.000000
 C_FINAL  =    1.000000
 DEBUG    =   -1.000000
 C_SORT1  =    0.000000
 C_SEWARD =    0.000000
 THRESH   =    0.000000
 IO       =  molpro                                                          
 SPRI     =    0.000000
 SETTING GEOMTYP        =    XYZ
 ZUNIT=ANG
 

 Variable memory set to   50000000 words,  buffer space   230000 words

 SETTING BASIS          =    CC-PVTZ-F12
 SETTING CHARGE         =     0.00000000D+00                                  
 SETTING SPIN           =     0.00000000D+00                                  


 Recomputing integrals since basis changed


 Using spherical harmonics

 Library entry O      S cc-pVTZ-F12          selected for orbital group  1
 Library entry O      P cc-pVTZ-F12          selected for orbital group  1
 Library entry O      D cc-pVTZ-F12          selected for orbital group  1
 Library entry O      F cc-pVTZ-F12          selected for orbital group  1
 Library entry H      S cc-pVTZ-F12          selected for orbital group  2
 Library entry H      P cc-pVTZ-F12          selected for orbital group  2
 Library entry H      D cc-pVTZ-F12          selected for orbital group  2


 PROGRAM * SEWARD (Integral evaluation for generally contracted gaussian basis sets)     Author: Roland Lindh, 1990

 Geometry written to block  1 of record 700


 Point group  Cs  



 ATOMIC COORDINATES

 NR  ATOM    CHARGE       X              Y              Z

   1  O       8.00    0.000000000    0.094486306   -0.124238451
   2  H       1.00    0.000000000    1.431390245    0.986041166
   3  H       1.00    0.000000000   -1.431390245    0.986041166

 Bond lengths in Bohr (Angstrom)

 1-2  1.737824205  1-3  1.887066527
     ( 0.919616966)     ( 0.998592601)

 Bond angles

  2-1-3  104.24994452

 NUCLEAR CHARGE:                   10
 NUMBER OF PRIMITIVE AOS:         114
 NUMBER OF SYMMETRY AOS:          103
 NUMBER OF CONTRACTIONS:           89   (  61A'  +  28A"  )
 NUMBER OF CORE ORBITALS:           1   (   1A'  +   0A"  )
 NUMBER OF VALENCE ORBITALS:        6   (   5A'  +   1A"  )


 NUCLEAR REPULSION ENERGY    9.19215251

 Eigenvalues of metric

         1 0.210E-03 0.458E-03 0.574E-03 0.710E-03 0.796E-03 0.158E-02 0.200E-02 0.215E-02
         2 0.691E-03 0.740E-02 0.114E-01 0.438E-01 0.835E-01 0.893E-01 0.127E+00 0.187E+00


 Contracted 2-electron integrals neglected if value below      1.0D-11

        3628605. INTEGRALS WRITTEN OUT IN     887 BLOCKS ON RECORD 1290 OF FILE 1


 NUMBER OF SORTED TWO-ELECTRON INTEGRALS:    4174745.     BUFFER LENGTH:  32768
 NUMBER OF SEGMENTS:   1  SEGMENT LENGTH:    4174745      RECORD LENGTH: 524288

 Memory used in sort:       4.73 MW

 SORT1 READ     3628605. AND WROTE     3690329. INTEGRALS IN     11 RECORDS. CPU TIME:     0.10 SEC, REAL TIME:     0.15 SEC
 SORT2 READ     3690329. AND WROTE     4174745. INTEGRALS IN      1 RECORDS. CPU TIME:     0.11 SEC, REAL TIME:     0.15 SEC

 FILE SIZES:   FILE 1:    78.3 MBYTE,  FILE 4:    46.2 MBYTE,   TOTAL:    124.4 MBYTE

 OPERATOR DM      FOR CENTER  0  COORDINATES:    0.000000    0.000000    0.000000


 **********************************************************************************************************************************
 DATASETS  * FILE   NREC   LENGTH (MB)   RECORD NAMES
              1      19       50.78       500      610      700      900      950      970     1000      129      960     1100   
                                          VAR    BASINP    GEOM    SYMINP    ZMAT    AOBASIS   BASIS     P2S    ABASIS      S 
                                         1400     1410     1200     1210     1080     1600     1650     1300     1700   
                                           T        V       H0       H01     AOSYM     SMH    MOLCAS    ERIS     OPER   

 PROGRAMS   *        TOTAL       INT
 CPU TIMES  *         0.71      0.61
 REAL TIME  *         1.52 SEC
 DISK USED  *       124.76 MB      
 **********************************************************************************************************************************


 PROGRAM * RHF-SCF (CLOSED SHELL)       Authors: W. Meyer, H.-J. Werner


 NUMBER OF ELECTRONS:       5+    5-
 CONVERGENCE THRESHOLDS:    1.00E-05 (Density)    1.00E-07 (Energy)
 MAX. NUMBER OF ITERATIONS:       60
 INTERPOLATION TYPE:            DIIS
 INTERPOLATION STEPS:              2 (START)      1 (STEP)
 LEVEL SHIFTS:                  0.00 (CLOSED)  0.00 (OPEN) 



 Orbital guess generated from atomic densities. Full valence occupancy:    6   1

 Molecular orbital dump at record        2100.2

 Initial occupancy:   4   1

 ITERATION    DDIFF          GRAD             ENERGY        2-EL.EN.            DIPOLE MOMENTS         DIIS   ORB.
    1      0.000D+00      0.000D+00       -76.02332715     77.692213    0.00000   -0.12214    1.13777    0    start
    2      0.000D+00      0.137D-01       -76.05057751     74.071236    0.00000   -0.04732    0.67634    1    diag
    3      0.148D-01      0.855D-02       -76.06179002     75.662076    0.00000   -0.06074    0.79073    2    diag
    4      0.509D-02      0.808D-03       -76.06198337     75.571768    0.00000   -0.05577    0.78702    3    diag
    5      0.744D-03      0.224D-03       -76.06200366     75.585802    0.00000   -0.05376    0.78559    4    diag
    6      0.263D-03      0.445D-04       -76.06200497     75.584804    0.00000   -0.05312    0.78526    5    diag
    7      0.751D-04      0.910D-05       -76.06200504     75.584941    0.00000   -0.05295    0.78513    6    diag
    8      0.163D-04      0.174D-05       -76.06200504     75.584930    0.00000   -0.05293    0.78509    7    diag
    9      0.305D-05      0.231D-06       -76.06200504     75.584917    0.00000   -0.05293    0.78508    0    orth

 Final occupancy:   4   1

 !RHF STATE 1.1 Energy                -76.062005038209
 Nuclear energy                         9.19215251
 One-electron energy                 -123.04661591
 Two-electron energy                   37.79245836
 Virial quotient                       -1.00083277
 !RHF STATE 1.1 Dipole moment           0.00000000    -0.05292959     0.78508307
 Dipole moment /Debye                   0.00000000    -0.13452478     1.99535144

 Orbital energies:

         1.1          2.1          3.1          4.1          5.1          6.1
    -20.565000    -1.353724    -0.716907    -0.584643     0.101330     0.120816

         1.2          2.2          3.2
     -0.510576     0.145257     0.480322

 HOMO      1.2    -0.510576 =     -13.8935eV
 LUMO      5.1     0.101330 =       2.7573eV
 LUMO-HOMO         0.611905 =      16.6508eV


 **********************************************************************************************************************************
 DATASETS  * FILE   NREC   LENGTH (MB)   RECORD NAMES
              1      19       50.78       500      610      700      900      950      970     1000      129      960     1100   
                                          VAR    BASINP    GEOM    SYMINP    ZMAT    AOBASIS   BASIS     P2S    ABASIS      S 
                                         1400     1410     1200     1210     1080     1600     1650     1300     1700   
                                           T        V       H0       H01     AOSYM     SMH    MOLCAS    ERIS     OPER   

              2       4        2.88       700     1000      520     2100   
                                         GEOM     BASIS   MCVARS     RHF  

 PROGRAMS   *        TOTAL        HF       INT
 CPU TIMES  *         1.00      0.29      0.61
 REAL TIME  *         1.87 SEC
 DISK USED  *       124.76 MB      
 **********************************************************************************************************************************


 PROGRAM * CCSD (Closed-shell coupled cluster)     Authors: C. Hampel, H.-J. Werner, 1991, M. Deegan, P.J. Knowles, 1992

                                  CCSD-F12 implementation by  H.-J. Werner, 2007

                   Density fitting integral evaluation by F.R. Manby, 2003,2007, G. Knizia, 2010

 Basis set AUG-CC-PVTZ/JKFIT generated.  Number of basis functions:   196 
 Basis set CC-PVTZ-F12/OPTRI generated.  Number of basis functions:   157 
 Basis set AUG-CC-PVTZ/MP2FIT generated. Number of basis functions:   198 

 Convergence thresholds:  THRVAR = 1.00D-08  THRDEN = 1.00D-06

 CCSD(T)     terms to be evaluated (factor= 1.000)


 Number of core orbitals:           1 (   1   0 )
 Number of closed-shell orbitals:   4 (   3   1 )
 Number of external orbitals:      84 (  57  27 )

 Molecular orbitals read from record     2100.2  Type=RHF/CANONICAL (state 1.1)

 MP2-F12 correlation treatment (H.-J. Werner, 2006)
 ==================================================

 Using MP2-F12 with ansatz 3C(FIX)

 Using projected zeroth-order Hamiltonian (+Z)

 FOCKRIB=T FOCKRIC=T FOCKRIP=T CABSP=T CABSA=T CABSK=T CABSF=T GBC=F EBC=F DMAT=T NOFIK=T NOPAO=1 SOLVE=-1  USEPAO=0
 EXCH_A= T EXCH_B= F EXCH_C= F EXCH_P= F
 
 Geminal basis:    OPTFULL  GEM_TYPE=SLATER  BETA=1.0  NGEM=6

 Optimizing Gaussian exponents for each gem_beta

 Geminal optimization for beta= 1.0000
 Weight function:   m=0, omega= 1.4646

 Augmented Hessian optimization of geminal fit. Trust ratio= 0.40000
 Convergence reached after   2 iterations. Final gradient= 8.41D-16, Step= 4.29D-06, Delta= 1.28D-09
 
 Alpha:                 0.19532     0.81920     2.85917     9.50073    35.69989   197.79328
 Coeff:                 0.27070     0.30552     0.18297     0.10986     0.06810     0.04224
 

 Symmetry turned off. Reference energy:        -76.062005038209

 All pairs explicitly correlated. Number of r12-pairs:           10

 Excluding core orbitals from MO domains
 
 AO(A)-basis ORBITAL           loaded. Number of functions:      89
 RI(R)-basis CC-PVTZ-F12/OPTRI loaded. Number of functions:     157
 DF-basis AUG-CC-PVTZ/JKFIT    loaded. Number of functions:     196

 Screening thresholds:   THRAO=  1.00D-10  THRMO=  1.00D-09  THRPROD=  1.00D-09
                         THRSW=  1.00D-05  THROV=  1.00D-12  THRAOF12=   1.00D-08

 CPU time for Fock operators                      1.08 sec
 
 Construction of ABS:
 Smallest eigenvalue of S          7.16E-04  (threshold= 1.00E-08)
 Ratio eigmin/eigmax               1.20E-04  (threshold= 1.00E-09)
 Smallest eigenvalue of S kept     7.16E-04  (threshold= 7.16E-04, 0 functions deleted, 157 kept)
 
 Construction of CABS:
 Smallest eigenvalue of S          1.77E-06  (threshold= 1.00E-08)
 Ratio eigmin/eigmax               1.77E-06  (threshold= 1.00E-09)
 Smallest eigenvalue of S kept     1.77E-06  (threshold= 1.77E-06, 0 functions deleted, 157 kept)
 
 CPU time for CABS singles                        0.01 sec

 CABS-singles contribution of  -0.00101259 patched into reference energy.
 New reference energy         -76.06301763
 
 AO(A)-basis ORBITAL           loaded. Number of functions:      89
 RI(R)-basis CC-PVTZ-F12/OPTRI loaded. Number of functions:     157
 DF-basis AUG-CC-PVTZ/MP2FIT   loaded. Number of functions:     198

 Screening thresholds:   THRAO=  1.00D-10  THRMO=  1.00D-09  THRPROD=  1.00D-09
                         THRSW=  1.00D-05  THROV=  1.00D-12  THRAOF12=   1.00D-08

 CPU time for 3-index integral evaluation         0.56 sec
 CPU time for first  half transformation          0.07 sec ( 2519.4 MFLOP/sec)
 CPU time for sorting                             0.01 sec
 CPU time for fitting                             0.02 sec ( 4092.9 MFLOP/sec)
 CPU time for tilde quantities                    0.01 sec (10820.3 MFLOP/sec)
 CPU time for tranop_f12                          0.03 sec (21731.0 MFLOP/sec)
 CPU time for f12 integrals (total)               1.59 sec, Elapsed time:      1.62 sec
 CPU time for f12 matrices (total)                0.01 sec, Elapsed time:      0.02 sec

 Diagonal F12 approximation with fixed coefficients:  TSING= 0.500,  TTRIP= 0.250 (scaled by -1/beta)

 DF-MP2-F12 energy corrections:
 ==============================
 Approx.                                    Singlet             Triplet             Total
 DF-MP2-F12/3*C(DX,FIX)                -0.025273741499     -0.003023932601     -0.028297674100
 DF-MP2-F12/3*C(FIX)                   -0.023472743390     -0.002732856985     -0.026205600374
 DF-MP2-F12/3C(FIX)                    -0.023395210136     -0.002828902856     -0.026224112992

 DF-MP2-F12 correlation energies:
 ================================
 Approx.                                    Singlet             Triplet             Ecorr            Total Energy
 DF-MP2                                -0.173900536507     -0.099209915154     -0.273110451661    -76.336128083142
 DF-MP2-F12/3*C(DX,FIX)                -0.199174278006     -0.102233847755     -0.301408125761    -76.364425757242
 DF-MP2-F12/3*C(FIX)                   -0.197373279897     -0.101942772139     -0.299316052036    -76.362333683516
 DF-MP2-F12/3C(FIX)                    -0.197295746643     -0.102038818010     -0.299334564654    -76.362352196134

 SCS-DF-MP2 energies (F_SING= 1.20000  F_TRIP= 0.62222  F_PARALLEL= 0.33333):
 ============================================================================
 SCS-DF-MP2                            -0.270411257682    -76.333428889163
 SCS-DF-MP2-F12/3*C(DX,FIX)            -0.302621305544    -76.365638937024
 SCS-DF-MP2-F12/3*C(FIX)               -0.300278994096    -76.363296625576
 SCS-DF-MP2-F12/3C(FIX)                -0.300245716067    -76.363263347548

 Symmetry restored.
 Symmetry transformation completed.

 Number of N-1 electron functions:               4
 Number of N-2 electron functions:              10
 Number of singly external CSFs:               198
 Number of doubly external CSFs:             29292
 Total number of CSFs:                       29491

 Length of J-op  integral file:               8.97 MB
 Length of K-op  integral file:              13.62 MB
 Length of 3-ext integral record:             0.00 MB

 Memory could be reduced to 2.37 Mwords without degradation in triples

 Integral transformation finished. Total CPU:   0.08 sec, npass=  1  Memory used:   0.62 MW

 Reference energy:                    -76.06301763

 Adding F12 terms to K(Cij), methodcc=6,  factor= 1.0

 ITER.      SQ.NORM     CORR.ENERGY   TOTAL ENERGY   ENERGY CHANGE        DEN1      VAR(S)    VAR(P)  DIIS     TIME  TIME/IT
   1      1.06152994    -0.27347241   -76.33649004    -0.00031932     0.00546697  0.72D-03  0.96D-03  1  1     3.04     0.07
   2      1.06475698    -0.27321057   -76.33622820     0.00026184    -0.00451994  0.13D-04  0.10D-03  2  2     3.11     0.07
   3      1.06588959    -0.27333608   -76.33635371    -0.00012551    -0.00078172  0.85D-05  0.66D-05  3  3     3.18     0.08
   4      1.06640469    -0.27335712   -76.33637475    -0.00002104    -0.00034195  0.41D-06  0.52D-06  4  4     3.25     0.08
   5      1.06649206    -0.27335552   -76.33637315     0.00000160    -0.00001904  0.12D-06  0.31D-07  5  5     3.32     0.08
   6      1.06651541    -0.27335426   -76.33637189     0.00000126    -0.00000385  0.10D-07  0.31D-08  6  6     3.38     0.08
   7      1.06652141    -0.27335389   -76.33637152     0.00000037    -0.00000138  0.87D-09  0.24D-09  6  1     3.46     0.08
   8      1.06652280    -0.27335395   -76.33637158    -0.00000006    -0.00000001  0.66D-10  0.26D-10  6  2     3.52     0.08

 Norm of t1 vector:      0.03512087      S-energy:    -0.00000011      T1 diagnostic:  0.00878022
                                                                       D1 diagnostic:  0.01750302

 Adding energy correction from Wij-K(Fij), methodcc=6  factor= 1.0
 
  CCSD correlation energy              -0.273353949214
  MP2-F12 correction (uncoupled)       -0.025103488570
  C*T doubles correction               -0.000841844331
  f12b correction                       0.004273156973


 Total CPU time for triples:      0.47 sec


 RESULTS
 =======

  Reference energy                    -76.062005038209
  F12 singles correction               -0.001012593271

 F12 singles corrections added to reference energy

  New reference energy                -76.063017631480

  F12a singlet correction              -0.023222498845
  F12a triplet correction              -0.002722834055
  F12a total correction                -0.025945332900

 F12a corrections for ansatz F12/3C(FIX) added to CCSD energy
 
  CCSD-F12a singlet pair energy        -0.208583662483
  CCSD-F12a triplet pair energy        -0.090715510221
  CCSD-F12a correlation energy         -0.299299282114

  Triples (T) contribution             -0.008726743008
  Total correlation energy             -0.308026025123

  CCSD-F12a total energy              -76.362316913595
  CCSD[T]-F12a energy                 -76.371336258248
  CCSD-T-F12a energy                  -76.370915988412
 !CCSD(T)-F12a total energy           -76.371043656603

 F12b corrections for ansatz F12/3C(FIX) added to CCSD(T)-F12a energy

  CCSD-F12b singlet pair energy        -0.204622019488
  CCSD-F12b triplet pair energy        -0.090403996243
  CCSD-F12b correlation energy         -0.295026125141

  Triples (T) contribution             -0.008726743008
  Total correlation energy             -0.303752868150

  CCSD-F12b total energy              -76.358043756622
  CCSD[T]-F12b energy                 -76.367063101275
  CCSD-T-F12b energy                  -76.366642831439
 !CCSD(T)-F12b total energy           -76.366770499630

 Timing summary (sec):

 STEP                 CPU(USER)    SYS     CPU(TOT)    WALL
 Transformation          0.08      0.02      0.10      0.12
 CCSD iterations         0.58      0.08      0.66      0.68
 Triples                 0.47      0.00      0.47      0.47
 MP2-F12                 2.86      0.04      2.90      2.90
 F12b energy             0.06      0.01      0.07      0.06

 Program statistics:

 Available memory in ccsd:                49999786
 Min. memory needed in ccsd:                145972
 Max. memory used in ccsd:                  166319
 Max. memory used in cckext:                248663 ( 9 integral passes)



 **********************************************************************************************************************************
 DATASETS  * FILE   NREC   LENGTH (MB)   RECORD NAMES
              1      20       56.28       500      610      700      900      950      970     1000      129      960     1100   
                                          VAR    BASINP    GEOM    SYMINP    ZMAT    AOBASIS   BASIS     P2S    ABASIS      S 
                                         1400     1410     1200     1210     1080     1600     1650     1300     1700     1380   
                                           T        V       H0       H01     AOSYM     SMH    MOLCAS    ERIS     OPER     JKOP   

              2       6        2.97       700     1000      520     2100     7360     7350   
                                         GEOM     BASIS   MCVARS     RHF    F12ABS    EF12   

 PROGRAMS   *        TOTAL   CCSD(T)        HF       INT
 CPU TIMES  *         5.07      4.07      0.29      0.61
 REAL TIME  *         6.15 SEC
 DISK USED  *       124.76 MB      
 **********************************************************************************************************************************

 CCSD(T)-F12/cc-pVTZ-F12 energy=    -76.366770499630

     CCSD(T)-F12        HF-SCF  
    -76.36677050    -76.06200504
 **********************************************************************************************************************************
 Molpro calculation terminated
 Variable memory released
