
 Primary working directories    : /tmp/r2518/22857.maple
 Secondary working directories  : /tmp/r2518/22857.maple
 Wavefunction directory         : /ddn/home1/r2518/wfu/
 Main file repository           : /tmp/r2518/22857.maple/

 SHA1      : d5ffa45e93fdbca01ffc919aa182cfdae0147319
 NAME      : 2015.1.35
 ARCHNAME  : linux/x86_64
 FC        : /opt/intel/composer_xe_2015.1.133/bin/intel64/ifort
 BLASLIB   : -Wl,-_start-group /opt/intel/mkl/lib/intel64/libmkl_intel_ilp64.a /opt/intel/mkl/lib/intel64/libmkl_intel_thread.a /opt/intel/mkl/lib/intel64/libmkl_core.a -Wl,-_end-group
 id        : olemiss

 Nodes     nprocs
 cn096        1

 Using customized tuning parameters: mindgm=1; mindgv=20; mindgc=4; mindgr=1; noblas=0; minvec=7
 default implementation of scratch files=df  

 memory,50,m
 nocompress;
 geomtyp=xyz
 angstrom
 geometry={
 O,-0.05,0.0,-0.1157441568
 H,0.0,0.7574590974,0.5217905143
 H,0.0,-0.7574590974,0.5217905143
 }
 basis=cc-pVTZ-F12
 set,charge=0
 set,spin=0
 hf
 {CCSD(T)-F12}

 Variables initialized (889), CPU time= 0.00 sec
 Commands  initialized (702), CPU time= 0.01 sec, 572 directives.
 Default parameters read. Elapsed time= 0.05 sec

 Checking input...
 Passed
1


                                         ***  PROGRAM SYSTEM MOLPRO  ***
                                       Copyright, TTI GmbH Stuttgart, 2015
                                    Version 2015.1 linked Jul  9 2018 13:16:40


 **********************************************************************************************************************************
 LABEL *                                                                                 
  64 bit serial version                                                                  DATE: 28-Aug-19          TIME: 15:37:27  
 **********************************************************************************************************************************

 SHA1:             d5ffa45e93fdbca01ffc919aa182cfdae0147319
 **********************************************************************************************************************************

 Input parameters for SORTINT:

 COMPRESS =    0.000000
 C_FINAL  =    1.000000
 DEBUG    =   -1.000000
 C_SORT1  =    0.000000
 C_SEWARD =    0.000000
 THRESH   =    0.000000
 IO       =  molpro                                                          
 SPRI     =    0.000000
 SETTING GEOMTYP        =    XYZ
 ZUNIT=ANG
 

 Variable memory set to   50000000 words,  buffer space   230000 words

 SETTING BASIS          =    CC-PVTZ-F12
 SETTING CHARGE         =     0.00000000D+00                                  
 SETTING SPIN           =     0.00000000D+00                                  


 Recomputing integrals since basis changed


 Using spherical harmonics

 Library entry O      S cc-pVTZ-F12          selected for orbital group  1
 Library entry O      P cc-pVTZ-F12          selected for orbital group  1
 Library entry O      D cc-pVTZ-F12          selected for orbital group  1
 Library entry O      F cc-pVTZ-F12          selected for orbital group  1
 Library entry H      S cc-pVTZ-F12          selected for orbital group  2
 Library entry H      P cc-pVTZ-F12          selected for orbital group  2
 Library entry H      D cc-pVTZ-F12          selected for orbital group  2


 PROGRAM * SEWARD (Integral evaluation for generally contracted gaussian basis sets)     Author: Roland Lindh, 1990

 Geometry written to block  1 of record 700


 Point group  Cs  



 ATOMIC COORDINATES

 NR  ATOM    CHARGE       X              Y              Z

   1  O       8.00   -0.094486306    0.000000000   -0.218724757
   2  H       1.00    0.000000000    1.431390245    0.986041166
   3  H       1.00    0.000000000   -1.431390245    0.986041166

 Bond lengths in Bohr (Angstrom)

 1-2  1.873303666  1-3  1.873303666
     ( 0.991309609)     ( 0.991309609)

 Bond angles

  2-1-3   99.65387769

 NUCLEAR CHARGE:                   10
 NUMBER OF PRIMITIVE AOS:         114
 NUMBER OF SYMMETRY AOS:          103
 NUMBER OF CONTRACTIONS:           89   (  53A'  +  36A"  )
 NUMBER OF CORE ORBITALS:           1   (   1A'  +   0A"  )
 NUMBER OF VALENCE ORBITALS:        6   (   4A'  +   2A"  )


 NUCLEAR REPULSION ENERGY    8.89037128

 Eigenvalues of metric

         1 0.242E-03 0.586E-03 0.695E-03 0.724E-03 0.163E-02 0.227E-02 0.470E-02 0.780E-02
         2 0.496E-03 0.826E-03 0.212E-02 0.481E-02 0.103E-01 0.118E-01 0.148E-01 0.192E-01


 Contracted 2-electron integrals neglected if value below      1.0D-11

        3529934. INTEGRALS WRITTEN OUT IN     863 BLOCKS ON RECORD 1290 OF FILE 1


 NUMBER OF SORTED TWO-ELECTRON INTEGRALS:    4105845.     BUFFER LENGTH:  32768
 NUMBER OF SEGMENTS:   1  SEGMENT LENGTH:    4105845      RECORD LENGTH: 524288

 Memory used in sort:       4.66 MW

 SORT1 READ     3529934. AND WROTE     3598932. INTEGRALS IN     11 RECORDS. CPU TIME:     0.03 SEC, REAL TIME:     0.09 SEC
 SORT2 READ     3598932. AND WROTE     4105845. INTEGRALS IN      1 RECORDS. CPU TIME:     0.07 SEC, REAL TIME:     0.10 SEC

 FILE SIZES:   FILE 1:    76.7 MBYTE,  FILE 4:    46.2 MBYTE,   TOTAL:    122.8 MBYTE

 OPERATOR DM      FOR CENTER  0  COORDINATES:    0.000000    0.000000    0.000000


 **********************************************************************************************************************************
 DATASETS  * FILE   NREC   LENGTH (MB)   RECORD NAMES
              1      19       49.94       500      610      700      900      950      970     1000      129      960     1100   
                                          VAR    BASINP    GEOM    SYMINP    ZMAT    AOBASIS   BASIS     P2S    ABASIS      S 
                                         1400     1410     1200     1210     1080     1600     1650     1300     1700   
                                           T        V       H0       H01     AOSYM     SMH    MOLCAS    ERIS     OPER   

 PROGRAMS   *        TOTAL       INT
 CPU TIMES  *         0.38      0.31
 REAL TIME  *         0.75 SEC
 DISK USED  *       123.17 MB      
 **********************************************************************************************************************************


 PROGRAM * RHF-SCF (CLOSED SHELL)       Authors: W. Meyer, H.-J. Werner


 NUMBER OF ELECTRONS:       5+    5-
 CONVERGENCE THRESHOLDS:    1.00E-05 (Density)    1.00E-07 (Energy)
 MAX. NUMBER OF ITERATIONS:       60
 INTERPOLATION TYPE:            DIIS
 INTERPOLATION STEPS:              2 (START)      1 (STEP)
 LEVEL SHIFTS:                  0.00 (CLOSED)  0.00 (OPEN) 



 Orbital guess generated from atomic densities. Full valence occupancy:    5   2

 Molecular orbital dump at record        2100.2

 Initial occupancy:   4   1

 ITERATION    DDIFF          GRAD             ENERGY        2-EL.EN.            DIPOLE MOMENTS         DIIS   ORB.
    1      0.000D+00      0.000D+00       -76.02030507     77.212075    0.09621    0.00000    1.22673    0    start
    2      0.000D+00      0.144D-01       -76.04765882     73.516983    0.05472    0.00000    0.69772    1    diag
    3      0.155D-01      0.932D-02       -76.05993231     75.180585    0.06528    0.00000    0.83235    2    diag
    4      0.549D-02      0.875D-03       -76.06013638     75.085887    0.06482    0.00000    0.82644    3    diag
    5      0.778D-03      0.254D-03       -76.06016108     75.102163    0.06465    0.00000    0.82439    4    diag
    6      0.300D-03      0.525D-04       -76.06016279     75.100920    0.06461    0.00000    0.82384    5    diag
    7      0.868D-04      0.108D-04       -76.06016288     75.101073    0.06460    0.00000    0.82369    6    diag
    8      0.192D-04      0.184D-05       -76.06016288     75.101058    0.06460    0.00000    0.82366    7    diag
    9      0.347D-05      0.218D-06       -76.06016288     75.101040    0.06460    0.00000    0.82365    0    orth

 Final occupancy:   4   1

 !RHF STATE 1.1 Energy                -76.060162878781
 Nuclear energy                         8.89037128
 One-electron energy                 -122.50105432
 Two-electron energy                   37.55052016
 Virial quotient                       -1.00241867
 !RHF STATE 1.1 Dipole moment           0.06459685     0.00000000     0.82365463
 Dipole moment /Debye                   0.16417806     0.00000000     2.09338414

 Orbital energies:

         1.1          2.1          3.1          4.1          5.1          6.1
    -20.572908    -1.339380    -0.587866    -0.509336     0.101041     0.142859

         1.2          2.2          3.2
     -0.690516     0.123209     0.218784

 HOMO      4.1    -0.509336 =     -13.8597eV
 LUMO      5.1     0.101041 =       2.7495eV
 LUMO-HOMO         0.610378 =      16.6092eV


 **********************************************************************************************************************************
 DATASETS  * FILE   NREC   LENGTH (MB)   RECORD NAMES
              1      19       49.94       500      610      700      900      950      970     1000      129      960     1100   
                                          VAR    BASINP    GEOM    SYMINP    ZMAT    AOBASIS   BASIS     P2S    ABASIS      S 
                                         1400     1410     1200     1210     1080     1600     1650     1300     1700   
                                           T        V       H0       H01     AOSYM     SMH    MOLCAS    ERIS     OPER   

              2       4        2.87       700     1000      520     2100   
                                         GEOM     BASIS   MCVARS     RHF  

 PROGRAMS   *        TOTAL        HF       INT
 CPU TIMES  *         0.58      0.20      0.31
 REAL TIME  *         1.06 SEC
 DISK USED  *       123.17 MB      
 **********************************************************************************************************************************


 PROGRAM * CCSD (Closed-shell coupled cluster)     Authors: C. Hampel, H.-J. Werner, 1991, M. Deegan, P.J. Knowles, 1992

                                  CCSD-F12 implementation by  H.-J. Werner, 2007

                   Density fitting integral evaluation by F.R. Manby, 2003,2007, G. Knizia, 2010

 Basis set AUG-CC-PVTZ/JKFIT generated.  Number of basis functions:   196 
 Basis set CC-PVTZ-F12/OPTRI generated.  Number of basis functions:   157 
 Basis set AUG-CC-PVTZ/MP2FIT generated. Number of basis functions:   198 

 Convergence thresholds:  THRVAR = 1.00D-08  THRDEN = 1.00D-06

 CCSD(T)     terms to be evaluated (factor= 1.000)


 Number of core orbitals:           1 (   1   0 )
 Number of closed-shell orbitals:   4 (   3   1 )
 Number of external orbitals:      84 (  49  35 )

 Molecular orbitals read from record     2100.2  Type=RHF/CANONICAL (state 1.1)

 MP2-F12 correlation treatment (H.-J. Werner, 2006)
 ==================================================

 Using MP2-F12 with ansatz 3C(FIX)

 Using projected zeroth-order Hamiltonian (+Z)

 FOCKRIB=T FOCKRIC=T FOCKRIP=T CABSP=T CABSA=T CABSK=T CABSF=T GBC=F EBC=F DMAT=T NOFIK=T NOPAO=1 SOLVE=-1  USEPAO=0
 EXCH_A= T EXCH_B= F EXCH_C= F EXCH_P= F
 
 Geminal basis:    OPTFULL  GEM_TYPE=SLATER  BETA=1.0  NGEM=6

 Optimizing Gaussian exponents for each gem_beta

 Geminal optimization for beta= 1.0000
 Weight function:   m=0, omega= 1.4646

 Augmented Hessian optimization of geminal fit. Trust ratio= 0.40000
 Convergence reached after   2 iterations. Final gradient= 8.41D-16, Step= 4.29D-06, Delta= 1.28D-09
 
 Alpha:                 0.19532     0.81920     2.85917     9.50073    35.69989   197.79328
 Coeff:                 0.27070     0.30552     0.18297     0.10986     0.06810     0.04224
 

 Symmetry turned off. Reference energy:        -76.060162878782

 All pairs explicitly correlated. Number of r12-pairs:           10

 Excluding core orbitals from MO domains
 
 AO(A)-basis ORBITAL           loaded. Number of functions:      89
 RI(R)-basis CC-PVTZ-F12/OPTRI loaded. Number of functions:     157
 DF-basis AUG-CC-PVTZ/JKFIT    loaded. Number of functions:     196

 Screening thresholds:   THRAO=  1.00D-10  THRMO=  1.00D-09  THRPROD=  1.00D-09
                         THRSW=  1.00D-05  THROV=  1.00D-12  THRAOF12=   1.00D-08

 CPU time for Fock operators                      0.85 sec
 
 Construction of ABS:
 Smallest eigenvalue of S          8.96E-04  (threshold= 1.00E-08)
 Ratio eigmin/eigmax               1.51E-04  (threshold= 1.00E-09)
 Smallest eigenvalue of S kept     8.96E-04  (threshold= 8.96E-04, 0 functions deleted, 157 kept)
 
 Construction of CABS:
 Smallest eigenvalue of S          2.24E-06  (threshold= 1.00E-08)
 Ratio eigmin/eigmax               2.24E-06  (threshold= 1.00E-09)
 Smallest eigenvalue of S kept     2.24E-06  (threshold= 2.24E-06, 0 functions deleted, 157 kept)
 
 CPU time for CABS singles                        0.01 sec

 CABS-singles contribution of  -0.00095122 patched into reference energy.
 New reference energy         -76.06111410
 
 AO(A)-basis ORBITAL           loaded. Number of functions:      89
 RI(R)-basis CC-PVTZ-F12/OPTRI loaded. Number of functions:     157
 DF-basis AUG-CC-PVTZ/MP2FIT   loaded. Number of functions:     198

 Screening thresholds:   THRAO=  1.00D-10  THRMO=  1.00D-09  THRPROD=  1.00D-09
                         THRSW=  1.00D-05  THROV=  1.00D-12  THRAOF12=   1.00D-08

 CPU time for 3-index integral evaluation         0.43 sec
 CPU time for first  half transformation          0.03 sec ( 5878.7 MFLOP/sec)
 CPU time for sorting                             0.01 sec
 CPU time for assembly                            0.01 sec (53512.5 MFLOP/sec)
 CPU time for tranop_f12                          0.01 sec (65192.9 MFLOP/sec)
 CPU time for f12 integrals (total)               1.23 sec, Elapsed time:      1.26 sec
 CPU time for f12 matrices (total)                0.01 sec, Elapsed time:      0.01 sec

 Diagonal F12 approximation with fixed coefficients:  TSING= 0.500,  TTRIP= 0.250 (scaled by -1/beta)

 DF-MP2-F12 energy corrections:
 ==============================
 Approx.                                    Singlet             Triplet             Total
 DF-MP2-F12/3*C(DX,FIX)                -0.025071733108     -0.002991944049     -0.028063677157
 DF-MP2-F12/3*C(FIX)                   -0.023322796617     -0.002711802629     -0.026034599246
 DF-MP2-F12/3C(FIX)                    -0.023245981281     -0.002807457537     -0.026053438818

 DF-MP2-F12 correlation energies:
 ================================
 Approx.                                    Singlet             Triplet             Ecorr            Total Energy
 DF-MP2                                -0.175850787680     -0.100314052042     -0.276164839722    -76.337278940042
 DF-MP2-F12/3*C(DX,FIX)                -0.200922520788     -0.103305996091     -0.304228516879    -76.365342617200
 DF-MP2-F12/3*C(FIX)                   -0.199173584297     -0.103025854671     -0.302199438967    -76.363313539288
 DF-MP2-F12/3C(FIX)                    -0.199096768960     -0.103121509579     -0.302218278539    -76.363332378860

 SCS-DF-MP2 energies (F_SING= 1.20000  F_TRIP= 0.62222  F_PARALLEL= 0.33333):
 ============================================================================
 SCS-DF-MP2                            -0.273438577597    -76.334552677918
 SCS-DF-MP2-F12/3*C(DX,FIX)            -0.305386311402    -76.366500411723
 SCS-DF-MP2-F12/3*C(FIX)               -0.303113277395    -76.364227377716
 SCS-DF-MP2-F12/3C(FIX)                -0.303080617602    -76.364194717923

 Symmetry restored.
 Symmetry transformation completed.

 Number of N-1 electron functions:               4
 Number of N-2 electron functions:              10
 Number of singly external CSFs:               182
 Number of doubly external CSFs:             28588
 Total number of CSFs:                       28771

 Length of J-op  integral file:               8.96 MB
 Length of K-op  integral file:              13.55 MB
 Length of 3-ext integral record:             0.00 MB

 Memory could be reduced to 2.31 Mwords without degradation in triples

 Integral transformation finished. Total CPU:   0.05 sec, npass=  1  Memory used:   0.69 MW

 Reference energy:                    -76.06111410

 Adding F12 terms to K(Cij), methodcc=6,  factor= 1.0

 ITER.      SQ.NORM     CORR.ENERGY   TOTAL ENERGY   ENERGY CHANGE        DEN1      VAR(S)    VAR(P)  DIIS     TIME  TIME/IT
   1      1.06370437    -0.27609309   -76.33720719     0.00011475     0.00632984  0.81D-03  0.11D-02  1  1     2.34     0.05
   2      1.06727089    -0.27583517   -76.33694927     0.00025792    -0.00484266  0.15D-04  0.12D-03  2  2     2.37     0.05
   3      1.06857516    -0.27597914   -76.33709324    -0.00014397    -0.00086038  0.99D-05  0.80D-05  3  3     2.42     0.05
   4      1.06918357    -0.27600276   -76.33711686    -0.00002361    -0.00038943  0.48D-06  0.62D-06  4  4     2.46     0.05
   5      1.06928608    -0.27600116   -76.33711526     0.00000159    -0.00002276  0.14D-06  0.39D-07  5  5     2.51     0.05
   6      1.06931367    -0.27599975   -76.33711385     0.00000141    -0.00000464  0.12D-07  0.39D-08  6  6     2.55     0.05
   7      1.06932062    -0.27599933   -76.33711343     0.00000042    -0.00000157  0.11D-08  0.30D-09  6  1     2.61     0.05
   8      1.06932223    -0.27599939   -76.33711349    -0.00000006    -0.00000001  0.85D-10  0.34D-10  6  2     2.65     0.05

 Norm of t1 vector:      0.03744779      S-energy:    -0.00000013      T1 diagnostic:  0.00936195
                                                                       D1 diagnostic:  0.01892169

 Adding energy correction from Wij-K(Fij), methodcc=6  factor= 1.0
 
  CCSD correlation energy              -0.275999389728
  MP2-F12 correction (uncoupled)       -0.024925596832
  C*T doubles correction               -0.000842089970
  f12b correction                       0.004289010544


 Total CPU time for triples:      0.20 sec


 RESULTS
 =======

  Reference energy                    -76.060162878782
  F12 singles correction               -0.000951221539

 F12 singles corrections added to reference energy

  New reference energy                -76.061114100321

  F12a singlet correction              -0.023066655441
  F12a triplet correction              -0.002701031361
  F12a total correction                -0.025767686802

 F12a corrections for ansatz F12/3C(FIX) added to CCSD energy
 
  CCSD-F12a singlet pair energy        -0.210722701095
  CCSD-F12a triplet pair energy        -0.091044240578
  CCSD-F12a correlation energy         -0.301767076529

  Triples (T) contribution             -0.009098173174
  Total correlation energy             -0.310865249703

  CCSD-F12a total energy              -76.362881176850
  CCSD[T]-F12a energy                 -76.372303112773
  CCSD-T-F12a energy                  -76.371836087732
 !CCSD(T)-F12a total energy           -76.371979350024

 F12b corrections for ansatz F12/3C(FIX) added to CCSD(T)-F12a energy

  CCSD-F12b singlet pair energy        -0.206743881857
  CCSD-F12b triplet pair energy        -0.090734049272
  CCSD-F12b correlation energy         -0.297478065986

  Triples (T) contribution             -0.009098173174
  Total correlation energy             -0.306576239159

  CCSD-F12b total energy              -76.358592166307
  CCSD[T]-F12b energy                 -76.368014102230
  CCSD-T-F12b energy                  -76.367547077188
 !CCSD(T)-F12b total energy           -76.367690339480

 Timing summary (sec):

 STEP                 CPU(USER)    SYS     CPU(TOT)    WALL
 Transformation          0.05      0.02      0.07      0.06
 CCSD iterations         0.39      0.07      0.46      0.48
 Triples                 0.20      0.01      0.21      0.21
 MP2-F12                 2.21      0.06      2.27      2.28
 F12b energy             0.05      0.00      0.05      0.04

 Program statistics:

 Available memory in ccsd:                49999786
 Min. memory needed in ccsd:                137628
 Max. memory used in ccsd:                  157351
 Max. memory used in cckext:                239207 ( 9 integral passes)



 **********************************************************************************************************************************
 DATASETS  * FILE   NREC   LENGTH (MB)   RECORD NAMES
              1      20       55.31       500      610      700      900      950      970     1000      129      960     1100   
                                          VAR    BASINP    GEOM    SYMINP    ZMAT    AOBASIS   BASIS     P2S    ABASIS      S 
                                         1400     1410     1200     1210     1080     1600     1650     1300     1700     1380   
                                           T        V       H0       H01     AOSYM     SMH    MOLCAS    ERIS     OPER     JKOP   

              2       6        2.96       700     1000      520     2100     7360     7350   
                                         GEOM     BASIS   MCVARS     RHF    F12ABS    EF12   

 PROGRAMS   *        TOTAL   CCSD(T)        HF       INT
 CPU TIMES  *         3.52      2.93      0.20      0.31
 REAL TIME  *         4.19 SEC
 DISK USED  *       123.17 MB      
 **********************************************************************************************************************************

 CCSD(T)-F12/cc-pVTZ-F12 energy=    -76.367690339480

     CCSD(T)-F12        HF-SCF  
    -76.36769034    -76.06016288
 **********************************************************************************************************************************
 Molpro calculation terminated
 Variable memory released
