
 Primary working directories    : /tmp/r2518/22890.maple
 Secondary working directories  : /tmp/r2518/22890.maple
 Wavefunction directory         : /ddn/home1/r2518/wfu/
 Main file repository           : /tmp/r2518/22890.maple/

 SHA1      : d5ffa45e93fdbca01ffc919aa182cfdae0147319
 NAME      : 2015.1.35
 ARCHNAME  : linux/x86_64
 FC        : /opt/intel/composer_xe_2015.1.133/bin/intel64/ifort
 BLASLIB   : -Wl,-_start-group /opt/intel/mkl/lib/intel64/libmkl_intel_ilp64.a /opt/intel/mkl/lib/intel64/libmkl_intel_thread.a /opt/intel/mkl/lib/intel64/libmkl_core.a -Wl,-_end-group
 id        : olemiss

 Nodes     nprocs
 cn004        1

 Using customized tuning parameters: mindgm=1; mindgv=20; mindgc=4; mindgr=1; noblas=0; minvec=7
 default implementation of scratch files=df  

 memory,50,m
 nocompress;
 geomtyp=xyz
 angstrom
 geometry={
 O,0.0,0.0,-0.0657441568
 H,0.0,0.7574590974,0.5217905143
 H,-0.05,-0.7574590974,0.4717905143
 }
 basis=cc-pVTZ-F12
 set,charge=0
 set,spin=0
 hf
 {CCSD(T)-F12}

 Variables initialized (889), CPU time= 0.01 sec
 Commands  initialized (702), CPU time= 0.00 sec, 572 directives.
 Default parameters read. Elapsed time= 0.27 sec

 Checking input...
 Passed
1


                                         ***  PROGRAM SYSTEM MOLPRO  ***
                                       Copyright, TTI GmbH Stuttgart, 2015
                                    Version 2015.1 linked Jul  9 2018 13:16:40


 **********************************************************************************************************************************
 LABEL *                                                                                 
  64 bit serial version                                                                  DATE: 28-Aug-19          TIME: 15:37:38  
 **********************************************************************************************************************************

 SHA1:             d5ffa45e93fdbca01ffc919aa182cfdae0147319
 **********************************************************************************************************************************

 Input parameters for SORTINT:

 COMPRESS =    0.000000
 C_FINAL  =    1.000000
 DEBUG    =   -1.000000
 C_SORT1  =    0.000000
 C_SEWARD =    0.000000
 THRESH   =    0.000000
 IO       =  molpro                                                          
 SPRI     =    0.000000
 SETTING GEOMTYP        =    XYZ
 ZUNIT=ANG
 

 Variable memory set to   50000000 words,  buffer space   230000 words

 SETTING BASIS          =    CC-PVTZ-F12
 SETTING CHARGE         =     0.00000000D+00                                  
 SETTING SPIN           =     0.00000000D+00                                  


 Recomputing integrals since basis changed


 Using spherical harmonics

 Library entry O      S cc-pVTZ-F12          selected for orbital group  1
 Library entry O      P cc-pVTZ-F12          selected for orbital group  1
 Library entry O      D cc-pVTZ-F12          selected for orbital group  1
 Library entry O      F cc-pVTZ-F12          selected for orbital group  1
 Library entry H      S cc-pVTZ-F12          selected for orbital group  2
 Library entry H      P cc-pVTZ-F12          selected for orbital group  2
 Library entry H      D cc-pVTZ-F12          selected for orbital group  2


 PROGRAM * SEWARD (Integral evaluation for generally contracted gaussian basis sets)     Author: Roland Lindh, 1990

 Geometry written to block  1 of record 700


 Point group  C1  



 ATOMIC COORDINATES

 NR  ATOM    CHARGE       X              Y              Z

   1  O       8.00    0.000000000    0.000000000   -0.124238451
   2  H       1.00    0.000000000    1.431390245    0.986041166
   3  H       1.00   -0.094486306   -1.431390245    0.891554860

 Bond lengths in Bohr (Angstrom)

 1-2  1.811518385  1-3  1.757737678
     ( 0.958614247)     ( 0.930154722)

 Bond angles

  2-1-3  106.81383177

 NUCLEAR CHARGE:                   10
 NUMBER OF PRIMITIVE AOS:         114
 NUMBER OF SYMMETRY AOS:          103
 NUMBER OF CONTRACTIONS:           89   (  89A   )
 NUMBER OF CORE ORBITALS:           1   (   1A   )
 NUMBER OF VALENCE ORBITALS:        6   (   6A   )


 NUCLEAR REPULSION ENERGY    9.31642052

 Eigenvalues of metric

         1 0.203E-03 0.430E-03 0.568E-03 0.689E-03 0.706E-03 0.784E-03 0.156E-02 0.197E-02


 Contracted 2-electron integrals neglected if value below      1.0D-11

        5975240. INTEGRALS WRITTEN OUT IN    1460 BLOCKS ON RECORD 1290 OF FILE 1


 NUMBER OF SORTED TWO-ELECTRON INTEGRALS:    8022015.     BUFFER LENGTH:  32768
 NUMBER OF SEGMENTS:   1  SEGMENT LENGTH:    8022015      RECORD LENGTH: 524288

 Memory used in sort:       8.58 MW

 SORT1 READ     5975240. AND WROTE     5975240. INTEGRALS IN     18 RECORDS. CPU TIME:     0.17 SEC, REAL TIME:    19.84 SEC
 SORT2 READ     5975240. AND WROTE     8022015. INTEGRALS IN      1 RECORDS. CPU TIME:     0.15 SEC, REAL TIME:     2.40 SEC

 FILE SIZES:   FILE 1:   115.9 MBYTE,  FILE 4:    75.5 MBYTE,   TOTAL:    191.4 MBYTE

 OPERATOR DM      FOR CENTER  0  COORDINATES:    0.000000    0.000000    0.000000


 **********************************************************************************************************************************
 DATASETS  * FILE   NREC   LENGTH (MB)   RECORD NAMES
              1      19       70.79       500      610      700      900      950      970     1000      129      960     1100   
                                          VAR    BASINP    GEOM    SYMINP    ZMAT    AOBASIS   BASIS     P2S    ABASIS      S 
                                         1400     1410     1200     1210     1080     1600     1650     1300     1700   
                                           T        V       H0       H01     AOSYM     SMH    MOLCAS    ERIS     OPER   

 PROGRAMS   *        TOTAL       INT
 CPU TIMES  *         0.83      0.73
 REAL TIME  *        41.31 SEC
 DISK USED  *       191.74 MB      
 **********************************************************************************************************************************


 PROGRAM * RHF-SCF (CLOSED SHELL)       Authors: W. Meyer, H.-J. Werner


 NUMBER OF ELECTRONS:       5+    5-    SPACE SYMMETRY=1    SPIN SYMMETRY: Singlet 
 CONVERGENCE THRESHOLDS:    1.00E-05 (Density)    1.00E-07 (Energy)
 MAX. NUMBER OF ITERATIONS:       60
 INTERPOLATION TYPE:            DIIS
 INTERPOLATION STEPS:              2 (START)      1 (STEP)
 LEVEL SHIFTS:                  0.00 (CLOSED)  0.00 (OPEN) 



 Orbital guess generated from atomic densities. Full valence occupancy:    7

 Molecular orbital dump at record        2100.2

 Initial occupancy:   5

 ITERATION    DDIFF          GRAD             ENERGY        2-EL.EN.            DIPOLE MOMENTS         DIIS   ORB.
    1      0.000D+00      0.000D+00       -76.02784555     77.873260   -0.04823    0.00923    1.09230    0    start
    2      0.000D+00      0.106D-01       -76.05465675     74.320109   -0.02958   -0.00344    0.66294    1    diag
    3      0.112D-01      0.650D-02       -76.06521880     75.867200   -0.03421   -0.00218    0.76806    2    diag
    4      0.377D-02      0.614D-03       -76.06539740     75.778075   -0.03415   -0.00378    0.76543    3    diag
    5      0.556D-03      0.162D-03       -76.06541391     75.791037   -0.03412   -0.00440    0.76439    4    diag
    6      0.186D-03      0.301D-04       -76.06541483     75.790231   -0.03412   -0.00460    0.76421    5    diag
    7      0.527D-04      0.570D-05       -76.06541487     75.790365   -0.03412   -0.00465    0.76411    6    diag
    8      0.110D-04      0.121D-05       -76.06541488     75.790359   -0.03412   -0.00466    0.76407    7    diag
    9      0.202D-05      0.158D-06       -76.06541488     75.790348   -0.03412   -0.00466    0.76407    0    orth

 Final occupancy:   5

 !RHF STATE 1.1 Energy                -76.065414876420
 Nuclear energy                         9.31642052
 One-electron energy                 -123.27700933
 Two-electron energy                   37.89517394
 Virial quotient                       -1.00028342
 !RHF STATE 1.1 Dipole moment          -0.03411705    -0.00465948     0.76406684
 Dipole moment /Debye                  -0.08671122    -0.01184244     1.94193699

 Orbital energies:

         1.1          2.1          3.1          4.1          5.1          6.1          7.1
    -20.561563    -1.358273    -0.729630    -0.582904    -0.510960     0.102128     0.119504

 HOMO      5.1    -0.510960 =     -13.9039eV
 LUMO      6.1     0.102128 =       2.7790eV
 LUMO-HOMO         0.613087 =      16.6830eV


 **********************************************************************************************************************************
 DATASETS  * FILE   NREC   LENGTH (MB)   RECORD NAMES
              1      19       70.79       500      610      700      900      950      970     1000      129      960     1100   
                                          VAR    BASINP    GEOM    SYMINP    ZMAT    AOBASIS   BASIS     P2S    ABASIS      S 
                                         1400     1410     1200     1210     1080     1600     1650     1300     1700   
                                           T        V       H0       H01     AOSYM     SMH    MOLCAS    ERIS     OPER   

              2       4        2.95       700     1000      520     2100   
                                         GEOM     BASIS   MCVARS     RHF  

 PROGRAMS   *        TOTAL        HF       INT
 CPU TIMES  *         1.48      0.65      0.73
 REAL TIME  *        43.53 SEC
 DISK USED  *       191.74 MB      
 **********************************************************************************************************************************


 PROGRAM * CCSD (Closed-shell coupled cluster)     Authors: C. Hampel, H.-J. Werner, 1991, M. Deegan, P.J. Knowles, 1992

                                  CCSD-F12 implementation by  H.-J. Werner, 2007

                   Density fitting integral evaluation by F.R. Manby, 2003,2007, G. Knizia, 2010

 Basis set AUG-CC-PVTZ/JKFIT generated.  Number of basis functions:   196 
 Basis set CC-PVTZ-F12/OPTRI generated.  Number of basis functions:   157 
 Basis set AUG-CC-PVTZ/MP2FIT generated. Number of basis functions:   198 

 Convergence thresholds:  THRVAR = 1.00D-08  THRDEN = 1.00D-06

 CCSD(T)     terms to be evaluated (factor= 1.000)


 Number of core orbitals:           1 (   1 )
 Number of closed-shell orbitals:   4 (   4 )
 Number of external orbitals:      84 (  84 )

 Molecular orbitals read from record     2100.2  Type=RHF/CANONICAL (state 1.1)

 MP2-F12 correlation treatment (H.-J. Werner, 2006)
 ==================================================

 Using MP2-F12 with ansatz 3C(FIX)

 Using projected zeroth-order Hamiltonian (+Z)

 FOCKRIB=T FOCKRIC=T FOCKRIP=T CABSP=T CABSA=T CABSK=T CABSF=T GBC=F EBC=F DMAT=T NOFIK=T NOPAO=1 SOLVE=-1  USEPAO=0
 EXCH_A= T EXCH_B= F EXCH_C= F EXCH_P= F
 
 Geminal basis:    OPTFULL  GEM_TYPE=SLATER  BETA=1.0  NGEM=6

 Optimizing Gaussian exponents for each gem_beta

 Geminal optimization for beta= 1.0000
 Weight function:   m=0, omega= 1.4646

 Augmented Hessian optimization of geminal fit. Trust ratio= 0.40000
 Convergence reached after   2 iterations. Final gradient= 8.12D-16, Step= 4.39D-06, Delta= 1.28D-09
 
 Alpha:                 0.19532     0.81920     2.85917     9.50073    35.69989   197.79328
 Coeff:                 0.27070     0.30552     0.18297     0.10986     0.06810     0.04224
 

 All pairs explicitly correlated. Number of r12-pairs:           10

 Excluding core orbitals from MO domains
 
 AO(A)-basis ORBITAL           loaded. Number of functions:      89
 RI(R)-basis CC-PVTZ-F12/OPTRI loaded. Number of functions:     157
 DF-basis AUG-CC-PVTZ/JKFIT    loaded. Number of functions:     196

 Screening thresholds:   THRAO=  1.00D-10  THRMO=  1.00D-09  THRPROD=  1.00D-09
                         THRSW=  1.00D-05  THROV=  1.00D-12  THRAOF12=   1.00D-08

 CPU time for Fock operators                      0.39 sec
 
 Construction of ABS:
 Smallest eigenvalue of S          7.27E-04  (threshold= 1.00E-08)
 Ratio eigmin/eigmax               1.21E-04  (threshold= 1.00E-09)
 Smallest eigenvalue of S kept     7.27E-04  (threshold= 7.27E-04, 0 functions deleted, 157 kept)
 
 Construction of CABS:
 Smallest eigenvalue of S          1.71E-06  (threshold= 1.00E-08)
 Ratio eigmin/eigmax               1.71E-06  (threshold= 1.00E-09)
 Smallest eigenvalue of S kept     1.71E-06  (threshold= 1.71E-06, 0 functions deleted, 157 kept)
 
 CPU time for CABS singles                        0.02 sec

 CABS-singles contribution of  -0.00103504 patched into reference energy.
 New reference energy         -76.06644992
 
 AO(A)-basis ORBITAL           loaded. Number of functions:      89
 RI(R)-basis CC-PVTZ-F12/OPTRI loaded. Number of functions:     157
 DF-basis AUG-CC-PVTZ/MP2FIT   loaded. Number of functions:     198

 Screening thresholds:   THRAO=  1.00D-10  THRMO=  1.00D-09  THRPROD=  1.00D-09
                         THRSW=  1.00D-05  THROV=  1.00D-12  THRAOF12=   1.00D-08

 CPU time for 3-index integral evaluation         0.58 sec
 CPU time for first  half transformation          0.08 sec ( 2204.5 MFLOP/sec)
 CPU time for second half transformation          0.01 sec (  493.4 MFLOP/sec)
 CPU time for assembly                            0.04 sec (13378.1 MFLOP/sec)
 CPU time for tranop_f12                          0.03 sec (21731.0 MFLOP/sec)
 CPU time for f12 integrals (total)               0.83 sec, Elapsed time:      0.85 sec
 CPU time for f12 matrices (total)                0.01 sec, Elapsed time:      0.02 sec

 Diagonal F12 approximation with fixed coefficients:  TSING= 0.500,  TTRIP= 0.250 (scaled by -1/beta)

 DF-MP2-F12 energy corrections:
 ==============================
 Approx.                                    Singlet             Triplet             Total
 DF-MP2-F12/3*C(DX,FIX)                -0.025356113904     -0.003037144146     -0.028393258050
 DF-MP2-F12/3*C(FIX)                   -0.023535346008     -0.002741686964     -0.026277032972
 DF-MP2-F12/3C(FIX)                    -0.023458614407     -0.002837985462     -0.026296599869

 DF-MP2-F12 correlation energies:
 ================================
 Approx.                                    Singlet             Triplet             Ecorr            Total Energy
 DF-MP2                                -0.173017850945     -0.098776454798     -0.271794305744    -76.338244224348
 DF-MP2-F12/3*C(DX,FIX)                -0.198373964849     -0.101813598945     -0.300187563794    -76.366637482398
 DF-MP2-F12/3*C(FIX)                   -0.196553196953     -0.101518141762     -0.298071338715    -76.364521257320
 DF-MP2-F12/3C(FIX)                    -0.196476465353     -0.101614440260     -0.298090905613    -76.364540824217

 SCS-DF-MP2 energies (F_SING= 1.20000  F_TRIP= 0.62222  F_PARALLEL= 0.33333):
 ============================================================================
 SCS-DF-MP2                            -0.269082326342    -76.335532244947
 SCS-DF-MP2-F12/3*C(DX,FIX)            -0.301399441607    -76.367849360212
 SCS-DF-MP2-F12/3*C(FIX)               -0.299030680107    -76.365480598711
 SCS-DF-MP2-F12/3C(FIX)                -0.298998521252    -76.365448439856
 Symmetry transformation completed.

 Number of N-1 electron functions:               4
 Number of N-2 electron functions:              10
 Number of singly external CSFs:               336
 Number of doubly external CSFs:             56616
 Total number of CSFs:                       56953

 Length of J-op  integral file:               9.11 MB
 Length of K-op  integral file:              14.70 MB
 Length of 3-ext integral record:             0.00 MB

 Memory could be reduced to 4.35 Mwords without degradation in triples

 Integral transformation finished. Total CPU:   0.21 sec, npass=  1  Memory used:   2.09 MW

 Reference energy:                    -76.06644992

 Adding F12 terms to K(Cij), methodcc=6,  factor= 1.0

 ITER.      SQ.NORM     CORR.ENERGY   TOTAL ENERGY   ENERGY CHANGE        DEN1      VAR(S)    VAR(P)  DIIS     TIME  TIME/IT
   1      1.06050533    -0.27230123   -76.33875115    -0.00046454     0.00512183  0.68D-03  0.91D-03  1  1     1.69     0.18
   2      1.06355968    -0.27203040   -76.33848032     0.00027082    -0.00436777  0.12D-04  0.93D-04  2  2     1.85     0.19
   3      1.06460194    -0.27214662   -76.33859654    -0.00011622    -0.00074105  0.78D-05  0.59D-05  3  3     2.03     0.27
   4      1.06506879    -0.27216653   -76.33861644    -0.00001990    -0.00031791  0.38D-06  0.46D-06  4  4     2.20     0.25
   5      1.06514829    -0.27216500   -76.33861492     0.00000153    -0.00001717  0.11D-06  0.27D-07  5  5     2.38     0.24
   6      1.06516974    -0.27216381   -76.33861373     0.00000119    -0.00000354  0.90D-08  0.28D-08  6  6     2.53     0.23
   7      1.06517530    -0.27216347   -76.33861339     0.00000035    -0.00000128  0.76D-09  0.21D-09  6  1     2.69     0.22
   8      1.06517657    -0.27216352   -76.33861344    -0.00000006    -0.00000001  0.56D-10  0.22D-10  6  2     2.86     0.22

 Norm of t1 vector:      0.03389139      S-energy:    -0.00000009      T1 diagnostic:  0.00847285
                                                                       D1 diagnostic:  0.01683031

 Adding energy correction from Wij-K(Fij), methodcc=6  factor= 1.0
 
  CCSD correlation energy              -0.272163522491
  MP2-F12 correction (uncoupled)       -0.025178285882
  C*T doubles correction               -0.000841753743
  f12b correction                       0.004266756299


 Total CPU time for triples:      1.51 sec


 RESULTS
 =======

  Reference energy                    -76.065414876420
  F12 singles correction               -0.001035042185

 F12 singles corrections added to reference energy

  New reference energy                -76.066449918605

  F12a singlet correction              -0.023287927678
  F12a triplet correction              -0.002732111947
  F12a total correction                -0.026020039625

 F12a corrections for ansatz F12/3C(FIX) added to CCSD energy
 
  CCSD-F12a singlet pair energy        -0.207572607669
  CCSD-F12a triplet pair energy        -0.090610859905
  CCSD-F12a correlation energy         -0.298183562116

  Triples (T) contribution             -0.008562380107
  Total correlation energy             -0.306745942223

  CCSD-F12a total energy              -76.364633480721
  CCSD[T]-F12a energy                 -76.373473843462
  CCSD-T-F12a energy                  -76.373075719914
 !CCSD(T)-F12a total energy           -76.373195860828

 F12b corrections for ansatz F12/3C(FIX) added to CCSD(T)-F12a energy

  CCSD-F12b singlet pair energy        -0.203618102849
  CCSD-F12b triplet pair energy        -0.090298608427
  CCSD-F12b correlation energy         -0.293916805817

  Triples (T) contribution             -0.008562380107
  Total correlation energy             -0.302479185924

  CCSD-F12b total energy              -76.360366724422
  CCSD[T]-F12b energy                 -76.369207087163
  CCSD-T-F12b energy                  -76.368808963615
 !CCSD(T)-F12b total energy           -76.368929104529

 Timing summary (sec):

 STEP                 CPU(USER)    SYS     CPU(TOT)    WALL
 Transformation          0.21      0.03      0.24      0.55
 CCSD iterations         1.38      0.16      1.54      1.82
 Triples                 1.51      0.01      1.52      1.51
 MP2-F12                 1.27      0.05      1.32      1.33
 F12b energy             0.11      0.03      0.14      0.15

 Program statistics:

 Available memory in ccsd:                49999786
 Min. memory needed in ccsd:                269472
 Max. memory used in ccsd:                  308684
 Max. memory used in cckext:                227914 ( 9 integral passes)



 **********************************************************************************************************************************
 DATASETS  * FILE   NREC   LENGTH (MB)   RECORD NAMES
              1      20       81.47       500      610      700      900      950      970     1000      129      960     1100   
                                          VAR    BASINP    GEOM    SYMINP    ZMAT    AOBASIS   BASIS     P2S    ABASIS      S 
                                         1400     1410     1200     1210     1080     1600     1650     1300     1700     1380   
                                           T        V       H0       H01     AOSYM     SMH    MOLCAS    ERIS     OPER     JKOP   

              2       6        3.11       700     1000      520     2100     7360     7350   
                                         GEOM     BASIS   MCVARS     RHF    F12ABS    EF12   

 PROGRAMS   *        TOTAL   CCSD(T)        HF       INT
 CPU TIMES  *         6.00      4.52      0.65      0.73
 REAL TIME  *        49.45 SEC
 DISK USED  *       191.74 MB      
 **********************************************************************************************************************************

 CCSD(T)-F12/cc-pVTZ-F12 energy=    -76.368929104529

     CCSD(T)-F12        HF-SCF  
    -76.36892910    -76.06541488
 **********************************************************************************************************************************
 Molpro calculation terminated
 Variable memory released
