
 Primary working directories    : /tmp/r2518/22893.maple
 Secondary working directories  : /tmp/r2518/22893.maple
 Wavefunction directory         : /ddn/home1/r2518/wfu/
 Main file repository           : /tmp/r2518/22893.maple/

 SHA1      : d5ffa45e93fdbca01ffc919aa182cfdae0147319
 NAME      : 2015.1.35
 ARCHNAME  : linux/x86_64
 FC        : /opt/intel/composer_xe_2015.1.133/bin/intel64/ifort
 BLASLIB   : -Wl,-_start-group /opt/intel/mkl/lib/intel64/libmkl_intel_ilp64.a /opt/intel/mkl/lib/intel64/libmkl_intel_thread.a /opt/intel/mkl/lib/intel64/libmkl_core.a -Wl,-_end-group
 id        : olemiss

 Nodes     nprocs
 cn004        1

 Using customized tuning parameters: mindgm=1; mindgv=20; mindgc=4; mindgr=1; noblas=0; minvec=7
 default implementation of scratch files=df  

 memory,50,m
 nocompress;
 geomtyp=xyz
 angstrom
 geometry={
 O,-0.05,0.0,-0.015744156799999992
 H,0.0,0.7574590974,0.5217905143
 H,0.0,-0.7574590974,0.5217905143
 }
 basis=cc-pVTZ-F12
 set,charge=0
 set,spin=0
 hf
 {CCSD(T)-F12}

 Variables initialized (889), CPU time= 0.00 sec
 Commands  initialized (702), CPU time= 0.01 sec, 572 directives.
 Default parameters read. Elapsed time= 0.45 sec

 Checking input...
 Passed
1


                                         ***  PROGRAM SYSTEM MOLPRO  ***
                                       Copyright, TTI GmbH Stuttgart, 2015
                                    Version 2015.1 linked Jul  9 2018 13:16:40


 **********************************************************************************************************************************
 LABEL *                                                                                 
  64 bit serial version                                                                  DATE: 28-Aug-19          TIME: 15:37:38  
 **********************************************************************************************************************************

 SHA1:             d5ffa45e93fdbca01ffc919aa182cfdae0147319
 **********************************************************************************************************************************

 Input parameters for SORTINT:

 COMPRESS =    0.000000
 C_FINAL  =    1.000000
 DEBUG    =   -1.000000
 C_SORT1  =    0.000000
 C_SEWARD =    0.000000
 THRESH   =    0.000000
 IO       =  molpro                                                          
 SPRI     =    0.000000
 SETTING GEOMTYP        =    XYZ
 ZUNIT=ANG
 

 Variable memory set to   50000000 words,  buffer space   230000 words

 SETTING BASIS          =    CC-PVTZ-F12
 SETTING CHARGE         =     0.00000000D+00                                  
 SETTING SPIN           =     0.00000000D+00                                  


 Recomputing integrals since basis changed


 Using spherical harmonics

 Library entry O      S cc-pVTZ-F12          selected for orbital group  1
 Library entry O      P cc-pVTZ-F12          selected for orbital group  1
 Library entry O      D cc-pVTZ-F12          selected for orbital group  1
 Library entry O      F cc-pVTZ-F12          selected for orbital group  1
 Library entry H      S cc-pVTZ-F12          selected for orbital group  2
 Library entry H      P cc-pVTZ-F12          selected for orbital group  2
 Library entry H      D cc-pVTZ-F12          selected for orbital group  2


 PROGRAM * SEWARD (Integral evaluation for generally contracted gaussian basis sets)     Author: Roland Lindh, 1990

 Geometry written to block  1 of record 700


 Point group  Cs  



 ATOMIC COORDINATES

 NR  ATOM    CHARGE       X              Y              Z

   1  O       8.00   -0.094486306    0.000000000   -0.029752144
   2  H       1.00    0.000000000    1.431390245    0.986041166
   3  H       1.00    0.000000000   -1.431390245    0.986041166

 Bond lengths in Bohr (Angstrom)

 1-2  1.757737678  1-3  1.757737678
     ( 0.930154722)     ( 0.930154722)

 Bond angles

  2-1-3  109.04365174

 NUCLEAR CHARGE:                   10
 NUMBER OF PRIMITIVE AOS:         114
 NUMBER OF SYMMETRY AOS:          103
 NUMBER OF CONTRACTIONS:           89   (  53A'  +  36A"  )
 NUMBER OF CORE ORBITALS:           1   (   1A'  +   0A"  )
 NUMBER OF VALENCE ORBITALS:        6   (   4A'  +   2A"  )


 NUCLEAR REPULSION ENERGY    9.45192043

 Eigenvalues of metric

         1 0.193E-03 0.562E-03 0.687E-03 0.702E-03 0.153E-02 0.206E-02 0.345E-02 0.711E-02
         2 0.406E-03 0.773E-03 0.193E-02 0.401E-02 0.634E-02 0.711E-02 0.127E-01 0.161E-01


 Contracted 2-electron integrals neglected if value below      1.0D-11

        3529736. INTEGRALS WRITTEN OUT IN     862 BLOCKS ON RECORD 1290 OF FILE 1


 NUMBER OF SORTED TWO-ELECTRON INTEGRALS:    4105845.     BUFFER LENGTH:  32768
 NUMBER OF SEGMENTS:   1  SEGMENT LENGTH:    4105845      RECORD LENGTH: 524288

 Memory used in sort:       4.66 MW

 SORT1 READ     3529736. AND WROTE     3598734. INTEGRALS IN     11 RECORDS. CPU TIME:     0.13 SEC, REAL TIME:    15.33 SEC
 SORT2 READ     3598734. AND WROTE     4105845. INTEGRALS IN      1 RECORDS. CPU TIME:     0.11 SEC, REAL TIME:     6.98 SEC

 FILE SIZES:   FILE 1:    76.6 MBYTE,  FILE 4:    46.2 MBYTE,   TOTAL:    122.8 MBYTE

 OPERATOR DM      FOR CENTER  0  COORDINATES:    0.000000    0.000000    0.000000


 **********************************************************************************************************************************
 DATASETS  * FILE   NREC   LENGTH (MB)   RECORD NAMES
              1      19       49.94       500      610      700      900      950      970     1000      129      960     1100   
                                          VAR    BASINP    GEOM    SYMINP    ZMAT    AOBASIS   BASIS     P2S    ABASIS      S 
                                         1400     1410     1200     1210     1080     1600     1650     1300     1700   
                                           T        V       H0       H01     AOSYM     SMH    MOLCAS    ERIS     OPER   

 PROGRAMS   *        TOTAL       INT
 CPU TIMES  *         0.69      0.59
 REAL TIME  *        41.77 SEC
 DISK USED  *       123.10 MB      
 **********************************************************************************************************************************


 PROGRAM * RHF-SCF (CLOSED SHELL)       Authors: W. Meyer, H.-J. Werner


 NUMBER OF ELECTRONS:       5+    5-
 CONVERGENCE THRESHOLDS:    1.00E-05 (Density)    1.00E-07 (Energy)
 MAX. NUMBER OF ITERATIONS:       60
 INTERPOLATION TYPE:            DIIS
 INTERPOLATION STEPS:              2 (START)      1 (STEP)
 LEVEL SHIFTS:                  0.00 (CLOSED)  0.00 (OPEN) 



 Orbital guess generated from atomic densities. Full valence occupancy:    5   2

 Molecular orbital dump at record        2100.2

 Initial occupancy:   4   1

 ITERATION    DDIFF          GRAD             ENERGY        2-EL.EN.            DIPOLE MOMENTS         DIIS   ORB.
    1      0.000D+00      0.000D+00       -76.02856490     78.084754    0.09740    0.00000    1.04707    0    start
    2      0.000D+00      0.143D-01       -76.05520928     74.565357    0.06024    0.00000    0.64767    1    diag
    3      0.156D-01      0.862D-02       -76.06535106     76.082036    0.06927    0.00000    0.74475    2    diag
    4      0.515D-02      0.814D-03       -76.06552268     75.994634    0.06913    0.00000    0.74316    3    diag
    5      0.771D-03      0.208D-03       -76.06553725     76.006667    0.06906    0.00000    0.74243    4    diag
    6      0.249D-03      0.373D-04       -76.06553800     76.005970    0.06905    0.00000    0.74236    5    diag
    7      0.709D-04      0.657D-05       -76.06553803     76.006096    0.06905    0.00000    0.74229    6    diag
    8      0.146D-04      0.148D-05       -76.06553803     76.006094    0.06904    0.00000    0.74225    7    diag
    9      0.259D-05      0.203D-06       -76.06553803     76.006084    0.06904    0.00000    0.74224    0    orth

 Final occupancy:   4   1

 !RHF STATE 1.1 Energy                -76.065538033079
 Nuclear energy                         9.45192043
 One-electron energy                 -123.52050023
 Two-electron energy                   38.00304176
 Virial quotient                       -0.99956678
 !RHF STATE 1.1 Dipole moment           0.06904141     0.00000000     0.74224307
 Dipole moment /Debye                   0.17547427     0.00000000     1.88647013

 Orbital energies:

         1.1          2.1          3.1          4.1          5.1          6.1
    -20.558084    -1.364125    -0.581272    -0.511586     0.102419     0.145048

         1.2          2.2          3.2
     -0.742141     0.118305     0.231621

 HOMO      4.1    -0.511586 =     -13.9210eV
 LUMO      5.1     0.102419 =       2.7870eV
 LUMO-HOMO         0.614005 =      16.7079eV


 **********************************************************************************************************************************
 DATASETS  * FILE   NREC   LENGTH (MB)   RECORD NAMES
              1      19       49.94       500      610      700      900      950      970     1000      129      960     1100   
                                          VAR    BASINP    GEOM    SYMINP    ZMAT    AOBASIS   BASIS     P2S    ABASIS      S 
                                         1400     1410     1200     1210     1080     1600     1650     1300     1700   
                                           T        V       H0       H01     AOSYM     SMH    MOLCAS    ERIS     OPER   

              2       4        2.87       700     1000      520     2100   
                                         GEOM     BASIS   MCVARS     RHF  

 PROGRAMS   *        TOTAL        HF       INT
 CPU TIMES  *         0.93      0.24      0.59
 REAL TIME  *        44.14 SEC
 DISK USED  *       123.10 MB      
 **********************************************************************************************************************************


 PROGRAM * CCSD (Closed-shell coupled cluster)     Authors: C. Hampel, H.-J. Werner, 1991, M. Deegan, P.J. Knowles, 1992

                                  CCSD-F12 implementation by  H.-J. Werner, 2007

                   Density fitting integral evaluation by F.R. Manby, 2003,2007, G. Knizia, 2010

 Basis set AUG-CC-PVTZ/JKFIT generated.  Number of basis functions:   196 
 Basis set CC-PVTZ-F12/OPTRI generated.  Number of basis functions:   157 
 Basis set AUG-CC-PVTZ/MP2FIT generated. Number of basis functions:   198 

 Convergence thresholds:  THRVAR = 1.00D-08  THRDEN = 1.00D-06

 CCSD(T)     terms to be evaluated (factor= 1.000)


 Number of core orbitals:           1 (   1   0 )
 Number of closed-shell orbitals:   4 (   3   1 )
 Number of external orbitals:      84 (  49  35 )

 Molecular orbitals read from record     2100.2  Type=RHF/CANONICAL (state 1.1)

 MP2-F12 correlation treatment (H.-J. Werner, 2006)
 ==================================================

 Using MP2-F12 with ansatz 3C(FIX)

 Using projected zeroth-order Hamiltonian (+Z)

 FOCKRIB=T FOCKRIC=T FOCKRIP=T CABSP=T CABSA=T CABSK=T CABSF=T GBC=F EBC=F DMAT=T NOFIK=T NOPAO=1 SOLVE=-1  USEPAO=0
 EXCH_A= T EXCH_B= F EXCH_C= F EXCH_P= F
 
 Geminal basis:    OPTFULL  GEM_TYPE=SLATER  BETA=1.0  NGEM=6

 Optimizing Gaussian exponents for each gem_beta

 Geminal optimization for beta= 1.0000
 Weight function:   m=0, omega= 1.4646

 Augmented Hessian optimization of geminal fit. Trust ratio= 0.40000
 Convergence reached after   2 iterations. Final gradient= 8.12D-16, Step= 4.39D-06, Delta= 1.28D-09
 
 Alpha:                 0.19532     0.81920     2.85917     9.50073    35.69989   197.79328
 Coeff:                 0.27070     0.30552     0.18297     0.10986     0.06810     0.04224
 

 Symmetry turned off. Reference energy:        -76.065538033079

 All pairs explicitly correlated. Number of r12-pairs:           10

 Excluding core orbitals from MO domains
 
 AO(A)-basis ORBITAL           loaded. Number of functions:      89
 RI(R)-basis CC-PVTZ-F12/OPTRI loaded. Number of functions:     157
 DF-basis AUG-CC-PVTZ/JKFIT    loaded. Number of functions:     196

 Screening thresholds:   THRAO=  1.00D-10  THRMO=  1.00D-09  THRPROD=  1.00D-09
                         THRSW=  1.00D-05  THROV=  1.00D-12  THRAOF12=   1.00D-08

 CPU time for Fock operators                      1.00 sec
 
 Construction of ABS:
 Smallest eigenvalue of S          7.00E-04  (threshold= 1.00E-08)
 Ratio eigmin/eigmax               1.16E-04  (threshold= 1.00E-09)
 Smallest eigenvalue of S kept     7.00E-04  (threshold= 7.00E-04, 0 functions deleted, 157 kept)
 
 Construction of CABS:
 Smallest eigenvalue of S          1.61E-06  (threshold= 1.00E-08)
 Ratio eigmin/eigmax               1.61E-06  (threshold= 1.00E-09)
 Smallest eigenvalue of S kept     1.61E-06  (threshold= 1.61E-06, 0 functions deleted, 157 kept)
 
 CPU time for CABS singles                        0.02 sec

 CABS-singles contribution of  -0.00106129 patched into reference energy.
 New reference energy         -76.06659932
 
 AO(A)-basis ORBITAL           loaded. Number of functions:      89
 RI(R)-basis CC-PVTZ-F12/OPTRI loaded. Number of functions:     157
 DF-basis AUG-CC-PVTZ/MP2FIT   loaded. Number of functions:     198

 Screening thresholds:   THRAO=  1.00D-10  THRMO=  1.00D-09  THRPROD=  1.00D-09
                         THRSW=  1.00D-05  THROV=  1.00D-12  THRAOF12=   1.00D-08

 CPU time for 3-index integral evaluation         0.58 sec
 CPU time for first  half transformation          0.01 sec (17636.1 MFLOP/sec)
 CPU time for second half transformation          0.01 sec (  493.4 MFLOP/sec)
 CPU time for tilde quantities                    0.01 sec (10820.3 MFLOP/sec)
 CPU time for assembly                            0.05 sec (10702.5 MFLOP/sec)
 CPU time for tranop_f12                          0.03 sec (21731.0 MFLOP/sec)
 CPU time for f12 integrals (total)               1.57 sec, Elapsed time:      1.61 sec
 CPU time for f12 matrices (total)                0.02 sec, Elapsed time:      0.02 sec

 Diagonal F12 approximation with fixed coefficients:  TSING= 0.500,  TTRIP= 0.250 (scaled by -1/beta)

 DF-MP2-F12 energy corrections:
 ==============================
 Approx.                                    Singlet             Triplet             Total
 DF-MP2-F12/3*C(DX,FIX)                -0.025449632492     -0.003052593404     -0.028502225895
 DF-MP2-F12/3*C(FIX)                   -0.023606453913     -0.002752350147     -0.026358804059
 DF-MP2-F12/3C(FIX)                    -0.023528676729     -0.002848693622     -0.026377370351

 DF-MP2-F12 correlation energies:
 ================================
 Approx.                                    Singlet             Triplet             Ecorr            Total Energy
 DF-MP2                                -0.172210876985     -0.098364000373     -0.270574877358    -76.337174201452
 DF-MP2-F12/3*C(DX,FIX)                -0.197660509477     -0.101416593776     -0.299077103254    -76.365676427347
 DF-MP2-F12/3*C(FIX)                   -0.195817330898     -0.101116350520     -0.296933681418    -76.363533005511
 DF-MP2-F12/3C(FIX)                    -0.195739553715     -0.101212693994     -0.296952247709    -76.363551571802

 SCS-DF-MP2 energies (F_SING= 1.20000  F_TRIP= 0.62222  F_PARALLEL= 0.33333):
 ============================================================================
 SCS-DF-MP2                            -0.267857319281    -76.334456643375
 SCS-DF-MP2-F12/3*C(DX,FIX)            -0.300296269723    -76.366895593816
 SCS-DF-MP2-F12/3*C(FIX)               -0.297897637401    -76.364496961494
 SCS-DF-MP2-F12/3C(FIX)                -0.297864251832    -76.364463575925

 Symmetry restored.
 Symmetry transformation completed.

 Number of N-1 electron functions:               4
 Number of N-2 electron functions:              10
 Number of singly external CSFs:               182
 Number of doubly external CSFs:             28588
 Total number of CSFs:                       28771

 Length of J-op  integral file:               8.96 MB
 Length of K-op  integral file:              13.55 MB
 Length of 3-ext integral record:             0.00 MB

 Memory could be reduced to 2.31 Mwords without degradation in triples

 Integral transformation finished. Total CPU:   0.06 sec, npass=  1  Memory used:   0.69 MW

 Reference energy:                    -76.06659932

 Adding F12 terms to K(Cij), methodcc=6,  factor= 1.0

 ITER.      SQ.NORM     CORR.ENERGY   TOTAL ENERGY   ENERGY CHANGE        DEN1      VAR(S)    VAR(P)  DIIS     TIME  TIME/IT
   1      1.05959348    -0.27122907   -76.33782839    -0.00061197     0.00480110  0.64D-03  0.87D-03  1  1     2.94     0.07
   2      1.06250762    -0.27095274   -76.33755206     0.00027633    -0.00423465  0.11D-04  0.87D-04  2  2     3.01     0.07
   3      1.06348079    -0.27106165   -76.33766098    -0.00010892    -0.00070806  0.72D-05  0.53D-05  3  3     3.07     0.07
   4      1.06391155    -0.27108062   -76.33767994    -0.00001896    -0.00029888  0.35D-06  0.42D-06  4  4     3.14     0.07
   5      1.06398503    -0.27107912   -76.33767845     0.00000149    -0.00001571  0.98D-07  0.25D-07  5  5     3.20     0.07
   6      1.06400488    -0.27107800   -76.33767732     0.00000113    -0.00000327  0.81D-08  0.25D-08  6  6     3.26     0.07
   7      1.06401006    -0.27107767   -76.33767700     0.00000033    -0.00000120  0.67D-09  0.19D-09  6  1     3.32     0.07
   8      1.06401124    -0.27107773   -76.33767705    -0.00000005    -0.00000000  0.49D-10  0.19D-10  6  2     3.39     0.07

 Norm of t1 vector:      0.03286285      S-energy:    -0.00000008      T1 diagnostic:  0.00821571
                                                                       D1 diagnostic:  0.01622088

 Adding energy correction from Wij-K(Fij), methodcc=6  factor= 1.0
 
  CCSD correlation energy              -0.271077725772
  MP2-F12 correction (uncoupled)       -0.025263350153
  C*T doubles correction               -0.000840963474
  f12b correction                       0.004260728809


 Total CPU time for triples:      0.35 sec


 RESULTS
 =======

  Reference energy                    -76.065538033079
  F12 singles correction               -0.001061291014

 F12 singles corrections added to reference energy

  New reference energy                -76.066599324093

  F12a singlet correction              -0.023361293447
  F12a triplet correction              -0.002743020180
  F12a total correction                -0.026104313627

 F12a corrections for ansatz F12/3C(FIX) added to CCSD energy
 
  CCSD-F12a singlet pair energy        -0.206678585315
  CCSD-F12a triplet pair energy        -0.090503370080
  CCSD-F12a correlation energy         -0.297182039399

  Triples (T) contribution             -0.008412523311
  Total correlation energy             -0.305594562711

  CCSD-F12a total energy              -76.363781363493
  CCSD[T]-F12a energy                 -76.372459363825
  CCSD-T-F12a energy                  -76.372080030563
 !CCSD(T)-F12a total energy           -76.372193886804

 F12b corrections for ansatz F12/3C(FIX) added to CCSD(T)-F12a energy

  CCSD-F12b singlet pair energy        -0.202730855293
  CCSD-F12b triplet pair energy        -0.090190371294
  CCSD-F12b correlation energy         -0.292921310591

  Triples (T) contribution             -0.008412523311
  Total correlation energy             -0.301333833902

  CCSD-F12b total energy              -76.359520634684
  CCSD[T]-F12b energy                 -76.368198635016
  CCSD-T-F12b energy                  -76.367819301754
 !CCSD(T)-F12b total energy           -76.367933157995

 Timing summary (sec):

 STEP                 CPU(USER)    SYS     CPU(TOT)    WALL
 Transformation          0.07      0.02      0.09      0.17
 CCSD iterations         0.56      0.06      0.62      0.62
 Triples                 0.35      0.01      0.36      0.37
 MP2-F12                 2.76      0.04      2.80      5.60
 F12b energy             0.04      0.01      0.05      0.05

 Program statistics:

 Available memory in ccsd:                49999786
 Min. memory needed in ccsd:                137628
 Max. memory used in ccsd:                  157351
 Max. memory used in cckext:                239207 ( 9 integral passes)



 **********************************************************************************************************************************
 DATASETS  * FILE   NREC   LENGTH (MB)   RECORD NAMES
              1      20       55.31       500      610      700      900      950      970     1000      129      960     1100   
                                          VAR    BASINP    GEOM    SYMINP    ZMAT    AOBASIS   BASIS     P2S    ABASIS      S 
                                         1400     1410     1200     1210     1080     1600     1650     1300     1700     1380   
                                           T        V       H0       H01     AOSYM     SMH    MOLCAS    ERIS     OPER     JKOP   

              2       6        2.96       700     1000      520     2100     7360     7350   
                                         GEOM     BASIS   MCVARS     RHF    F12ABS    EF12   

 PROGRAMS   *        TOTAL   CCSD(T)        HF       INT
 CPU TIMES  *         4.74      3.81      0.24      0.59
 REAL TIME  *        57.35 SEC
 DISK USED  *       123.10 MB      
 **********************************************************************************************************************************

 CCSD(T)-F12/cc-pVTZ-F12 energy=    -76.367933157995

     CCSD(T)-F12        HF-SCF  
    -76.36793316    -76.06553803
 **********************************************************************************************************************************
 Molpro calculation terminated
 Variable memory released
