
 Primary working directories    : /tmp/r2518/22926.maple
 Secondary working directories  : /tmp/r2518/22926.maple
 Wavefunction directory         : /ddn/home1/r2518/wfu/
 Main file repository           : /tmp/r2518/22926.maple/

 SHA1      : d5ffa45e93fdbca01ffc919aa182cfdae0147319
 NAME      : 2015.1.35
 ARCHNAME  : linux/x86_64
 FC        : /opt/intel/composer_xe_2015.1.133/bin/intel64/ifort
 BLASLIB   : -Wl,-_start-group /opt/intel/mkl/lib/intel64/libmkl_intel_ilp64.a /opt/intel/mkl/lib/intel64/libmkl_intel_thread.a /opt/intel/mkl/lib/intel64/libmkl_core.a -Wl,-_end-group
 id        : olemiss

 Nodes     nprocs
 cn060        1

 Using customized tuning parameters: mindgm=1; mindgv=20; mindgc=4; mindgr=1; noblas=0; minvec=7
 default implementation of scratch files=df  

 memory,50,m
 nocompress;
 geomtyp=xyz
 angstrom
 geometry={
 O,0.0,0.0,-0.1157441568
 H,0.0,0.7574590974,0.5217905143
 H,0.0,-0.7074590973999999,0.5217905143
 }
 basis=cc-pVTZ-F12
 set,charge=0
 set,spin=0
 hf
 {CCSD(T)-F12}

 Variables initialized (889), CPU time= 0.00 sec
 Commands  initialized (702), CPU time= 0.01 sec, 572 directives.
 Default parameters read. Elapsed time= 0.06 sec

 Checking input...
 Passed
1


                                         ***  PROGRAM SYSTEM MOLPRO  ***
                                       Copyright, TTI GmbH Stuttgart, 2015
                                    Version 2015.1 linked Jul  9 2018 13:16:40


 **********************************************************************************************************************************
 LABEL *                                                                                 
  64 bit serial version                                                                  DATE: 28-Aug-19          TIME: 15:37:38  
 **********************************************************************************************************************************

 SHA1:             d5ffa45e93fdbca01ffc919aa182cfdae0147319
 **********************************************************************************************************************************

 Input parameters for SORTINT:

 COMPRESS =    0.000000
 C_FINAL  =    1.000000
 DEBUG    =   -1.000000
 C_SORT1  =    0.000000
 C_SEWARD =    0.000000
 THRESH   =    0.000000
 IO       =  molpro                                                          
 SPRI     =    0.000000
 SETTING GEOMTYP        =    XYZ
 ZUNIT=ANG
 

 Variable memory set to   50000000 words,  buffer space   230000 words

 SETTING BASIS          =    CC-PVTZ-F12
 SETTING CHARGE         =     0.00000000D+00                                  
 SETTING SPIN           =     0.00000000D+00                                  


 Recomputing integrals since basis changed


 Using spherical harmonics

 Library entry O      S cc-pVTZ-F12          selected for orbital group  1
 Library entry O      P cc-pVTZ-F12          selected for orbital group  1
 Library entry O      D cc-pVTZ-F12          selected for orbital group  1
 Library entry O      F cc-pVTZ-F12          selected for orbital group  1
 Library entry H      S cc-pVTZ-F12          selected for orbital group  2
 Library entry H      P cc-pVTZ-F12          selected for orbital group  2
 Library entry H      D cc-pVTZ-F12          selected for orbital group  2


 PROGRAM * SEWARD (Integral evaluation for generally contracted gaussian basis sets)     Author: Roland Lindh, 1990

 Geometry written to block  1 of record 700


 Point group  Cs  



 ATOMIC COORDINATES

 NR  ATOM    CHARGE       X              Y              Z

   1  O       8.00    0.000000000    0.000000000   -0.218724757
   2  H       1.00    0.000000000    1.431390245    0.986041166
   3  H       1.00    0.000000000   -1.336903938    0.986041166

 Bond lengths in Bohr (Angstrom)

 1-2  1.870919283  1-3  1.799659154
     ( 0.990047848)     ( 0.952338612)

 Bond angles

  2-1-3   97.88955825

 NUCLEAR CHARGE:                   10
 NUMBER OF PRIMITIVE AOS:         114
 NUMBER OF SYMMETRY AOS:          103
 NUMBER OF CONTRACTIONS:           89   (  61A'  +  28A"  )
 NUMBER OF CORE ORBITALS:           1   (   1A'  +   0A"  )
 NUMBER OF VALENCE ORBITALS:        6   (   5A'  +   1A"  )


 NUCLEAR REPULSION ENERGY    9.08249230

 Eigenvalues of metric

         1 0.224E-03 0.479E-03 0.580E-03 0.717E-03 0.802E-03 0.159E-02 0.206E-02 0.215E-02
         2 0.693E-03 0.885E-02 0.110E-01 0.462E-01 0.841E-01 0.873E-01 0.141E+00 0.190E+00


 Contracted 2-electron integrals neglected if value below      1.0D-11

        3628596. INTEGRALS WRITTEN OUT IN     887 BLOCKS ON RECORD 1290 OF FILE 1


 NUMBER OF SORTED TWO-ELECTRON INTEGRALS:    4174745.     BUFFER LENGTH:  32768
 NUMBER OF SEGMENTS:   1  SEGMENT LENGTH:    4174745      RECORD LENGTH: 524288

 Memory used in sort:       4.73 MW

 SORT1 READ     3628596. AND WROTE     3690320. INTEGRALS IN     11 RECORDS. CPU TIME:     0.13 SEC, REAL TIME:     0.16 SEC
 SORT2 READ     3690320. AND WROTE     4174745. INTEGRALS IN      1 RECORDS. CPU TIME:     0.13 SEC, REAL TIME:     0.20 SEC

 FILE SIZES:   FILE 1:    78.3 MBYTE,  FILE 4:    46.2 MBYTE,   TOTAL:    124.4 MBYTE

 OPERATOR DM      FOR CENTER  0  COORDINATES:    0.000000    0.000000    0.000000


 **********************************************************************************************************************************
 DATASETS  * FILE   NREC   LENGTH (MB)   RECORD NAMES
              1      19       50.78       500      610      700      900      950      970     1000      129      960     1100   
                                          VAR    BASINP    GEOM    SYMINP    ZMAT    AOBASIS   BASIS     P2S    ABASIS      S 
                                         1400     1410     1200     1210     1080     1600     1650     1300     1700   
                                           T        V       H0       H01     AOSYM     SMH    MOLCAS    ERIS     OPER   

 PROGRAMS   *        TOTAL       INT
 CPU TIMES  *         0.75      0.65
 REAL TIME  *         1.75 SEC
 DISK USED  *       124.76 MB      
 **********************************************************************************************************************************


 PROGRAM * RHF-SCF (CLOSED SHELL)       Authors: W. Meyer, H.-J. Werner


 NUMBER OF ELECTRONS:       5+    5-
 CONVERGENCE THRESHOLDS:    1.00E-05 (Density)    1.00E-07 (Energy)
 MAX. NUMBER OF ITERATIONS:       60
 INTERPOLATION TYPE:            DIIS
 INTERPOLATION STEPS:              2 (START)      1 (STEP)
 LEVEL SHIFTS:                  0.00 (CLOSED)  0.00 (OPEN) 



 Orbital guess generated from atomic densities. Full valence occupancy:    6   1

 Molecular orbital dump at record        2100.2

 Initial occupancy:   4   1

 ITERATION    DDIFF          GRAD             ENERGY        2-EL.EN.            DIPOLE MOMENTS         DIIS   ORB.
    1      0.000D+00      0.000D+00       -76.02217585     77.477502    0.00000    0.05903    1.22167    0    start
    2      0.000D+00      0.137D-01       -76.04984118     73.843848    0.00000    0.02180    0.70522    1    diag
    3      0.149D-01      0.873D-02       -76.06162182     75.466921    0.00000    0.02879    0.83653    2    diag
    4      0.517D-02      0.825D-03       -76.06181627     75.373700    0.00000    0.02633    0.83183    3    diag
    5      0.734D-03      0.233D-03       -76.06183871     75.389490    0.00000    0.02527    0.83031    4    diag
    6      0.274D-03      0.474D-04       -76.06184020     75.388403    0.00000    0.02492    0.82995    5    diag
    7      0.778D-04      0.973D-05       -76.06184027     75.388544    0.00000    0.02483    0.82985    6    diag
    8      0.169D-04      0.168D-05       -76.06184028     75.388531    0.00000    0.02482    0.82982    7    diag
    9      0.321D-05      0.190D-06       -76.06184028     75.388514    0.00000    0.02482    0.82982    0    orth

 Final occupancy:   4   1

 !RHF STATE 1.1 Energy                -76.061840275188
 Nuclear energy                         9.08249230
 One-electron energy                 -122.83858978
 Two-electron energy                   37.69425720
 Virial quotient                       -1.00141025
 !RHF STATE 1.1 Dipole moment           0.00000000     0.02481501     0.82981736
 Dipole moment /Debye                   0.00000000     0.06306934     2.10904719

 Orbital energies:

         1.1          2.1          3.1          4.1          5.1          6.1
    -20.570085    -1.350999    -0.697414    -0.595179     0.099808     0.123231

         1.2          2.2          3.2
     -0.511361     0.145205     0.485516

 HOMO      1.2    -0.511361 =     -13.9148eV
 LUMO      5.1     0.099808 =       2.7159eV
 LUMO-HOMO         0.611169 =      16.6308eV


 **********************************************************************************************************************************
 DATASETS  * FILE   NREC   LENGTH (MB)   RECORD NAMES
              1      19       50.78       500      610      700      900      950      970     1000      129      960     1100   
                                          VAR    BASINP    GEOM    SYMINP    ZMAT    AOBASIS   BASIS     P2S    ABASIS      S 
                                         1400     1410     1200     1210     1080     1600     1650     1300     1700   
                                           T        V       H0       H01     AOSYM     SMH    MOLCAS    ERIS     OPER   

              2       4        2.88       700     1000      520     2100   
                                         GEOM     BASIS   MCVARS     RHF  

 PROGRAMS   *        TOTAL        HF       INT
 CPU TIMES  *         1.04      0.28      0.65
 REAL TIME  *         2.12 SEC
 DISK USED  *       124.76 MB      
 **********************************************************************************************************************************


 PROGRAM * CCSD (Closed-shell coupled cluster)     Authors: C. Hampel, H.-J. Werner, 1991, M. Deegan, P.J. Knowles, 1992

                                  CCSD-F12 implementation by  H.-J. Werner, 2007

                   Density fitting integral evaluation by F.R. Manby, 2003,2007, G. Knizia, 2010

 Basis set AUG-CC-PVTZ/JKFIT generated.  Number of basis functions:   196 
 Basis set CC-PVTZ-F12/OPTRI generated.  Number of basis functions:   157 
 Basis set AUG-CC-PVTZ/MP2FIT generated. Number of basis functions:   198 

 Convergence thresholds:  THRVAR = 1.00D-08  THRDEN = 1.00D-06

 CCSD(T)     terms to be evaluated (factor= 1.000)


 Number of core orbitals:           1 (   1   0 )
 Number of closed-shell orbitals:   4 (   3   1 )
 Number of external orbitals:      84 (  57  27 )

 Molecular orbitals read from record     2100.2  Type=RHF/CANONICAL (state 1.1)

 MP2-F12 correlation treatment (H.-J. Werner, 2006)
 ==================================================

 Using MP2-F12 with ansatz 3C(FIX)

 Using projected zeroth-order Hamiltonian (+Z)

 FOCKRIB=T FOCKRIC=T FOCKRIP=T CABSP=T CABSA=T CABSK=T CABSF=T GBC=F EBC=F DMAT=T NOFIK=T NOPAO=1 SOLVE=-1  USEPAO=0
 EXCH_A= T EXCH_B= F EXCH_C= F EXCH_P= F
 
 Geminal basis:    OPTFULL  GEM_TYPE=SLATER  BETA=1.0  NGEM=6

 Optimizing Gaussian exponents for each gem_beta

 Geminal optimization for beta= 1.0000
 Weight function:   m=0, omega= 1.4646

 Augmented Hessian optimization of geminal fit. Trust ratio= 0.40000
 Convergence reached after   2 iterations. Final gradient= 8.41D-16, Step= 4.29D-06, Delta= 1.28D-09
 
 Alpha:                 0.19532     0.81920     2.85917     9.50073    35.69989   197.79328
 Coeff:                 0.27070     0.30552     0.18297     0.10986     0.06810     0.04224
 

 Symmetry turned off. Reference energy:        -76.061840275187

 All pairs explicitly correlated. Number of r12-pairs:           10

 Excluding core orbitals from MO domains
 
 AO(A)-basis ORBITAL           loaded. Number of functions:      89
 RI(R)-basis CC-PVTZ-F12/OPTRI loaded. Number of functions:     157
 DF-basis AUG-CC-PVTZ/JKFIT    loaded. Number of functions:     196

 Screening thresholds:   THRAO=  1.00D-10  THRMO=  1.00D-09  THRPROD=  1.00D-09
                         THRSW=  1.00D-05  THROV=  1.00D-12  THRAOF12=   1.00D-08

 CPU time for Fock operators                      1.08 sec
 
 Construction of ABS:
 Smallest eigenvalue of S          7.79E-04  (threshold= 1.00E-08)
 Ratio eigmin/eigmax               1.30E-04  (threshold= 1.00E-09)
 Smallest eigenvalue of S kept     7.79E-04  (threshold= 7.79E-04, 0 functions deleted, 157 kept)
 
 Construction of CABS:
 Smallest eigenvalue of S          1.94E-06  (threshold= 1.00E-08)
 Ratio eigmin/eigmax               1.94E-06  (threshold= 1.00E-09)
 Smallest eigenvalue of S kept     1.94E-06  (threshold= 1.94E-06, 0 functions deleted, 157 kept)
 
 CPU time for CABS singles                        0.01 sec

 CABS-singles contribution of  -0.00099037 patched into reference energy.
 New reference energy         -76.06283065
 
 AO(A)-basis ORBITAL           loaded. Number of functions:      89
 RI(R)-basis CC-PVTZ-F12/OPTRI loaded. Number of functions:     157
 DF-basis AUG-CC-PVTZ/MP2FIT   loaded. Number of functions:     198

 Screening thresholds:   THRAO=  1.00D-10  THRMO=  1.00D-09  THRPROD=  1.00D-09
                         THRSW=  1.00D-05  THROV=  1.00D-12  THRAOF12=   1.00D-08

 CPU time for 3-index integral evaluation         0.59 sec
 CPU time for first  half transformation          0.07 sec ( 2519.4 MFLOP/sec)
 CPU time for assembly                            0.03 sec (17837.5 MFLOP/sec)
 CPU time for tranop_f12                          0.03 sec (21731.0 MFLOP/sec)
 CPU time for f12 integrals (total)               1.61 sec, Elapsed time:      1.65 sec
 CPU time for f12 matrices (total)                0.01 sec, Elapsed time:      0.02 sec

 Diagonal F12 approximation with fixed coefficients:  TSING= 0.500,  TTRIP= 0.250 (scaled by -1/beta)

 DF-MP2-F12 energy corrections:
 ==============================
 Approx.                                    Singlet             Triplet             Total
 DF-MP2-F12/3*C(DX,FIX)                -0.025179285198     -0.003013707392     -0.028192992590
 DF-MP2-F12/3*C(FIX)                   -0.023398598407     -0.002727869551     -0.026126467958
 DF-MP2-F12/3C(FIX)                    -0.023319977233     -0.002823798644     -0.026143775876

 DF-MP2-F12 correlation energies:
 ================================
 Approx.                                    Singlet             Triplet             Ecorr            Total Energy
 DF-MP2                                -0.174844461175     -0.099836651053     -0.274681112228    -76.337511757454
 DF-MP2-F12/3*C(DX,FIX)                -0.200023746373     -0.102850358445     -0.302874104818    -76.365704750044
 DF-MP2-F12/3*C(FIX)                   -0.198243059581     -0.102564520604     -0.300807580185    -76.363638225411
 DF-MP2-F12/3C(FIX)                    -0.198164438407     -0.102660449697     -0.300824888104    -76.363655533330

 SCS-DF-MP2 energies (F_SING= 1.20000  F_TRIP= 0.62222  F_PARALLEL= 0.33333):
 ============================================================================
 SCS-DF-MP2                            -0.271933936287    -76.334764581513
 SCS-DF-MP2-F12/3*C(DX,FIX)            -0.304024274235    -76.366854919461
 SCS-DF-MP2-F12/3*C(FIX)               -0.301709595429    -76.364540240655
 SCS-DF-MP2-F12/3C(FIX)                -0.301674939233    -76.364505584459

 Symmetry restored.
 Symmetry transformation completed.

 Number of N-1 electron functions:               4
 Number of N-2 electron functions:              10
 Number of singly external CSFs:               198
 Number of doubly external CSFs:             29292
 Total number of CSFs:                       29491

 Length of J-op  integral file:               8.97 MB
 Length of K-op  integral file:              13.62 MB
 Length of 3-ext integral record:             0.00 MB

 Memory could be reduced to 2.37 Mwords without degradation in triples

 Integral transformation finished. Total CPU:   0.08 sec, npass=  1  Memory used:   0.62 MW

 Reference energy:                    -76.06283065

 Adding F12 terms to K(Cij), methodcc=6,  factor= 1.0

 ITER.      SQ.NORM     CORR.ENERGY   TOTAL ENERGY   ENERGY CHANGE        DEN1      VAR(S)    VAR(P)  DIIS     TIME  TIME/IT
   1      1.06248453    -0.27480087   -76.33763152    -0.00007743     0.00590713  0.76D-03  0.10D-02  1  1     3.04     0.07
   2      1.06585334    -0.27453188   -76.33736252     0.00026899    -0.00466663  0.14D-04  0.11D-03  2  2     3.11     0.07
   3      1.06705236    -0.27466404   -76.33749468    -0.00013216    -0.00081125  0.91D-05  0.72D-05  3  3     3.18     0.08
   4      1.06760570    -0.27468595   -76.33751660    -0.00002191    -0.00036240  0.44D-06  0.56D-06  4  4     3.25     0.08
   5      1.06769864    -0.27468433   -76.33751497     0.00000163    -0.00002053  0.12D-06  0.34D-07  5  5     3.31     0.08
   6      1.06772358    -0.27468298   -76.33751363     0.00000134    -0.00000412  0.11D-07  0.34D-08  6  6     3.37     0.08
   7      1.06772991    -0.27468258   -76.33751323     0.00000040    -0.00000144  0.94D-09  0.26D-09  6  1     3.44     0.08
   8      1.06773138    -0.27468264   -76.33751328    -0.00000006    -0.00000001  0.69D-10  0.28D-10  6  2     3.51     0.08

 Norm of t1 vector:      0.03622047      S-energy:    -0.00000012      T1 diagnostic:  0.00905512
                                                                       D1 diagnostic:  0.01824906

 Adding energy correction from Wij-K(Fij), methodcc=6  factor= 1.0
 
  CCSD correlation energy              -0.274682638782
  MP2-F12 correction (uncoupled)       -0.025020064153
  C*T doubles correction               -0.000842960748
  f12b correction                       0.004278134533


 Total CPU time for triples:      0.41 sec


 RESULTS
 =======

  Reference energy                    -76.061840275187
  F12 singles correction               -0.000990370038

 F12 singles corrections added to reference energy

  New reference energy                -76.062830645226

  F12a singlet correction              -0.023145639547
  F12a triplet correction              -0.002717385354
  F12a total correction                -0.025863024901

 F12a corrections for ansatz F12/3C(FIX) added to CCSD energy
 
  CCSD-F12a singlet pair energy        -0.209569847756
  CCSD-F12a triplet pair energy        -0.090975695798
  CCSD-F12a correlation energy         -0.300545663682

  Triples (T) contribution             -0.008904688629
  Total correlation energy             -0.309450352312

  CCSD-F12a total energy              -76.363376308908
  CCSD[T]-F12a energy                 -76.372588275132
  CCSD-T-F12a energy                  -76.372145648208
 !CCSD(T)-F12a total energy           -76.372280997538

 F12b corrections for ansatz F12/3C(FIX) added to CCSD(T)-F12a energy

  CCSD-F12b singlet pair energy        -0.205602908740
  CCSD-F12b triplet pair energy        -0.090664500281
  CCSD-F12b correlation energy         -0.296267529149

  Triples (T) contribution             -0.008904688629
  Total correlation energy             -0.305172217779

  CCSD-F12b total energy              -76.359098174375
  CCSD[T]-F12b energy                 -76.368310140599
  CCSD-T-F12b energy                  -76.367867513675
 !CCSD(T)-F12b total energy           -76.368002863005

 Timing summary (sec):

 STEP                 CPU(USER)    SYS     CPU(TOT)    WALL
 Transformation          0.08      0.01      0.09      0.11
 CCSD iterations         0.56      0.12      0.68      0.69
 Triples                 0.41      0.01      0.42      0.42
 MP2-F12                 2.87      0.06      2.93      2.94
 F12b energy             0.05      0.01      0.06      0.06

 Program statistics:

 Available memory in ccsd:                49999786
 Min. memory needed in ccsd:                145972
 Max. memory used in ccsd:                  166319
 Max. memory used in cckext:                248663 ( 9 integral passes)



 **********************************************************************************************************************************
 DATASETS  * FILE   NREC   LENGTH (MB)   RECORD NAMES
              1      20       56.28       500      610      700      900      950      970     1000      129      960     1100   
                                          VAR    BASINP    GEOM    SYMINP    ZMAT    AOBASIS   BASIS     P2S    ABASIS      S 
                                         1400     1410     1200     1210     1080     1600     1650     1300     1700     1380   
                                           T        V       H0       H01     AOSYM     SMH    MOLCAS    ERIS     OPER     JKOP   

              2       6        2.97       700     1000      520     2100     7360     7350   
                                         GEOM     BASIS   MCVARS     RHF    F12ABS    EF12   

 PROGRAMS   *        TOTAL   CCSD(T)        HF       INT
 CPU TIMES  *         5.04      4.00      0.28      0.65
 REAL TIME  *         6.79 SEC
 DISK USED  *       124.76 MB      
 **********************************************************************************************************************************

 CCSD(T)-F12/cc-pVTZ-F12 energy=    -76.368002863005

     CCSD(T)-F12        HF-SCF  
    -76.36800286    -76.06184028
 **********************************************************************************************************************************
 Molpro calculation terminated
 Variable memory released
