
 Primary working directories    : /tmp/r2518/22874.maple
 Secondary working directories  : /tmp/r2518/22874.maple
 Wavefunction directory         : /ddn/home1/r2518/wfu/
 Main file repository           : /tmp/r2518/22874.maple/

 SHA1      : d5ffa45e93fdbca01ffc919aa182cfdae0147319
 NAME      : 2015.1.35
 ARCHNAME  : linux/x86_64
 FC        : /opt/intel/composer_xe_2015.1.133/bin/intel64/ifort
 BLASLIB   : -Wl,-_start-group /opt/intel/mkl/lib/intel64/libmkl_intel_ilp64.a /opt/intel/mkl/lib/intel64/libmkl_intel_thread.a /opt/intel/mkl/lib/intel64/libmkl_core.a -Wl,-_end-group
 id        : olemiss

 Nodes     nprocs
 cn083        1

 Using customized tuning parameters: mindgm=1; mindgv=20; mindgc=4; mindgr=1; noblas=0; minvec=7
 default implementation of scratch files=df  

 memory,50,m
 nocompress;
 geomtyp=xyz
 angstrom
 geometry={
 O,0.0,0.0,-0.1157441568
 H,0.0,0.7574590974,0.5217905143
 H,-0.05,-0.7574590974,0.5217905143
 }
 basis=cc-pVTZ-F12
 set,charge=0
 set,spin=0
 hf
 {CCSD(T)-F12}

 Variables initialized (889), CPU time= 0.00 sec
 Commands  initialized (702), CPU time= 0.01 sec, 572 directives.
 Default parameters read. Elapsed time= 0.05 sec

 Checking input...
 Passed
1


                                         ***  PROGRAM SYSTEM MOLPRO  ***
                                       Copyright, TTI GmbH Stuttgart, 2015
                                    Version 2015.1 linked Jul  9 2018 13:16:40


 **********************************************************************************************************************************
 LABEL *                                                                                 
  64 bit serial version                                                                  DATE: 28-Aug-19          TIME: 15:37:34  
 **********************************************************************************************************************************

 SHA1:             d5ffa45e93fdbca01ffc919aa182cfdae0147319
 **********************************************************************************************************************************

 Input parameters for SORTINT:

 COMPRESS =    0.000000
 C_FINAL  =    1.000000
 DEBUG    =   -1.000000
 C_SORT1  =    0.000000
 C_SEWARD =    0.000000
 THRESH   =    0.000000
 IO       =  molpro                                                          
 SPRI     =    0.000000
 SETTING GEOMTYP        =    XYZ
 ZUNIT=ANG
 

 Variable memory set to   50000000 words,  buffer space   230000 words

 SETTING BASIS          =    CC-PVTZ-F12
 SETTING CHARGE         =     0.00000000D+00                                  
 SETTING SPIN           =     0.00000000D+00                                  


 Recomputing integrals since basis changed


 Using spherical harmonics

 Library entry O      S cc-pVTZ-F12          selected for orbital group  1
 Library entry O      P cc-pVTZ-F12          selected for orbital group  1
 Library entry O      D cc-pVTZ-F12          selected for orbital group  1
 Library entry O      F cc-pVTZ-F12          selected for orbital group  1
 Library entry H      S cc-pVTZ-F12          selected for orbital group  2
 Library entry H      P cc-pVTZ-F12          selected for orbital group  2
 Library entry H      D cc-pVTZ-F12          selected for orbital group  2


 PROGRAM * SEWARD (Integral evaluation for generally contracted gaussian basis sets)     Author: Roland Lindh, 1990

 Geometry written to block  1 of record 700


 Point group  C1  



 ATOMIC COORDINATES

 NR  ATOM    CHARGE       X              Y              Z

   1  O       8.00    0.000000000    0.000000000   -0.218724757
   2  H       1.00    0.000000000    1.431390245    0.986041166
   3  H       1.00   -0.094486306   -1.431390245    0.986041166

 Bond lengths in Bohr (Angstrom)

 1-2  1.870919283  1-3  1.873303666
     ( 0.990047848)     ( 0.991309609)

 Bond angles

  2-1-3   99.81438139

 NUCLEAR CHARGE:                   10
 NUMBER OF PRIMITIVE AOS:         114
 NUMBER OF SYMMETRY AOS:          103
 NUMBER OF CONTRACTIONS:           89   (  89A   )
 NUMBER OF CORE ORBITALS:           1   (   1A   )
 NUMBER OF VALENCE ORBITALS:        6   (   6A   )


 NUCLEAR REPULSION ENERGY    8.89562373


 Eigenvalues of metric

         1 0.241E-03 0.495E-03 0.586E-03 0.695E-03 0.724E-03 0.826E-03 0.163E-02 0.212E-02


 Contracted 2-electron integrals neglected if value below      1.0D-11

        5883689. INTEGRALS WRITTEN OUT IN    1437 BLOCKS ON RECORD 1290 OF FILE 1


 NUMBER OF SORTED TWO-ELECTRON INTEGRALS:    8022015.     BUFFER LENGTH:  32768
 NUMBER OF SEGMENTS:   1  SEGMENT LENGTH:    8022015      RECORD LENGTH: 524288

 Memory used in sort:       8.58 MW

 SORT1 READ     5883689. AND WROTE     5883689. INTEGRALS IN     17 RECORDS. CPU TIME:     0.07 SEC, REAL TIME:     0.14 SEC
 SORT2 READ     5883689. AND WROTE     8022015. INTEGRALS IN      1 RECORDS. CPU TIME:     0.13 SEC, REAL TIME:     0.17 SEC

 FILE SIZES:   FILE 1:   114.4 MBYTE,  FILE 4:    71.3 MBYTE,   TOTAL:    185.7 MBYTE

 OPERATOR DM      FOR CENTER  0  COORDINATES:    0.000000    0.000000    0.000000


 **********************************************************************************************************************************
 DATASETS  * FILE   NREC   LENGTH (MB)   RECORD NAMES
              1      19       70.03       500      610      700      900      950      970     1000      129      960     1100   
                                          VAR    BASINP    GEOM    SYMINP    ZMAT    AOBASIS   BASIS     P2S    ABASIS      S 
                                         1400     1410     1200     1210     1080     1600     1650     1300     1700   
                                           T        V       H0       H01     AOSYM     SMH    MOLCAS    ERIS     OPER   

 PROGRAMS   *        TOTAL       INT
 CPU TIMES  *         0.70      0.61
 REAL TIME  *         6.39 SEC
 DISK USED  *       186.03 MB      
 **********************************************************************************************************************************


 PROGRAM * RHF-SCF (CLOSED SHELL)       Authors: W. Meyer, H.-J. Werner


 NUMBER OF ELECTRONS:       5+    5-    SPACE SYMMETRY=1    SPIN SYMMETRY: Singlet 
 CONVERGENCE THRESHOLDS:    1.00E-05 (Density)    1.00E-07 (Energy)
 MAX. NUMBER OF ITERATIONS:       60
 INTERPOLATION TYPE:            DIIS
 INTERPOLATION STEPS:              2 (START)      1 (STEP)
 LEVEL SHIFTS:                  0.00 (CLOSED)  0.00 (OPEN) 



 Orbital guess generated from atomic densities. Full valence occupancy:    7

 Molecular orbital dump at record        2100.2

 Initial occupancy:   5

 ITERATION    DDIFF          GRAD             ENERGY        2-EL.EN.            DIPOLE MOMENTS         DIIS   ORB.
    1      0.000D+00      0.000D+00       -76.02050840     77.220498   -0.04813   -0.00040    1.22695    0    start
    2      0.000D+00      0.107D-01       -76.04784603     73.527963   -0.02739    0.00018    0.69865    1    diag
    3      0.111D-01      0.690D-02       -76.06008676     75.189553   -0.03266    0.00012    0.83298    2    diag
    4      0.397D-02      0.648D-03       -76.06029041     75.094935   -0.03243    0.00020    0.82710    3    diag
    5      0.560D-03      0.188D-03       -76.06031494     75.111150   -0.03235    0.00023    0.82506    4    diag
    6      0.214D-03      0.387D-04       -76.06031663     75.109915   -0.03232    0.00024    0.82451    5    diag
    7      0.616D-04      0.798D-05       -76.06031672     75.110068   -0.03232    0.00025    0.82437    6    diag
    8      0.137D-04      0.136D-05       -76.06031672     75.110053   -0.03232    0.00025    0.82433    7    diag
    9      0.250D-05      0.162D-06       -76.06031672     75.110035   -0.03232    0.00025    0.82433    0    orth

 Final occupancy:   5

 !RHF STATE 1.1 Energy                -76.060316718764
 Nuclear energy                         8.89562373
 One-electron energy                 -122.51095812
 Two-electron energy                   37.55501767
 Virial quotient                       -1.00239511
 !RHF STATE 1.1 Dipole moment          -0.03231671     0.00024811     0.82432980
 Dipole moment /Debye                  -0.08213551     0.00063060     2.09510013

 Orbital energies:

         1.1          2.1          3.1          4.1          5.1          6.1          7.1
    -20.572732    -1.339573    -0.691145    -0.587679    -0.509334     0.101084     0.123140

 HOMO      5.1    -0.509334 =     -13.8597eV
 LUMO      6.1     0.101084 =       2.7506eV
 LUMO-HOMO         0.610418 =      16.6103eV


 **********************************************************************************************************************************
 DATASETS  * FILE   NREC   LENGTH (MB)   RECORD NAMES
              1      19       70.03       500      610      700      900      950      970     1000      129      960     1100   
                                          VAR    BASINP    GEOM    SYMINP    ZMAT    AOBASIS   BASIS     P2S    ABASIS      S 
                                         1400     1410     1200     1210     1080     1600     1650     1300     1700   
                                           T        V       H0       H01     AOSYM     SMH    MOLCAS    ERIS     OPER   

              2       4        2.95       700     1000      520     2100   
                                         GEOM     BASIS   MCVARS     RHF  

 PROGRAMS   *        TOTAL        HF       INT
 CPU TIMES  *         1.33      0.63      0.61
 REAL TIME  *         7.18 SEC
 DISK USED  *       186.03 MB      
 **********************************************************************************************************************************


 PROGRAM * CCSD (Closed-shell coupled cluster)     Authors: C. Hampel, H.-J. Werner, 1991, M. Deegan, P.J. Knowles, 1992

                                  CCSD-F12 implementation by  H.-J. Werner, 2007

                   Density fitting integral evaluation by F.R. Manby, 2003,2007, G. Knizia, 2010

 Basis set AUG-CC-PVTZ/JKFIT generated.  Number of basis functions:   196 
 Basis set CC-PVTZ-F12/OPTRI generated.  Number of basis functions:   157 
 Basis set AUG-CC-PVTZ/MP2FIT generated. Number of basis functions:   198 

 Convergence thresholds:  THRVAR = 1.00D-08  THRDEN = 1.00D-06

 CCSD(T)     terms to be evaluated (factor= 1.000)


 Number of core orbitals:           1 (   1 )
 Number of closed-shell orbitals:   4 (   4 )
 Number of external orbitals:      84 (  84 )

 Molecular orbitals read from record     2100.2  Type=RHF/CANONICAL (state 1.1)

 MP2-F12 correlation treatment (H.-J. Werner, 2006)
 ==================================================

 Using MP2-F12 with ansatz 3C(FIX)

 Using projected zeroth-order Hamiltonian (+Z)

 FOCKRIB=T FOCKRIC=T FOCKRIP=T CABSP=T CABSA=T CABSK=T CABSF=T GBC=F EBC=F DMAT=T NOFIK=T NOPAO=1 SOLVE=-1  USEPAO=0
 EXCH_A= T EXCH_B= F EXCH_C= F EXCH_P= F
 
 Geminal basis:    OPTFULL  GEM_TYPE=SLATER  BETA=1.0  NGEM=6

 Optimizing Gaussian exponents for each gem_beta

 Geminal optimization for beta= 1.0000
 Weight function:   m=0, omega= 1.4646

 Augmented Hessian optimization of geminal fit. Trust ratio= 0.40000
 Convergence reached after   2 iterations. Final gradient= 8.41D-16, Step= 4.29D-06, Delta= 1.28D-09
 
 Alpha:                 0.19532     0.81920     2.85917     9.50073    35.69989   197.79328
 Coeff:                 0.27070     0.30552     0.18297     0.10986     0.06810     0.04224
 

 All pairs explicitly correlated. Number of r12-pairs:           10

 Excluding core orbitals from MO domains
 
 AO(A)-basis ORBITAL           loaded. Number of functions:      89
 RI(R)-basis CC-PVTZ-F12/OPTRI loaded. Number of functions:     157
 DF-basis AUG-CC-PVTZ/JKFIT    loaded. Number of functions:     196

 Screening thresholds:   THRAO=  1.00D-10  THRMO=  1.00D-09  THRPROD=  1.00D-09
                         THRSW=  1.00D-05  THROV=  1.00D-12  THRAOF12=   1.00D-08

 CPU time for Fock operators                      0.39 sec
 
 Construction of ABS:
 Smallest eigenvalue of S          8.94E-04  (threshold= 1.00E-08)
 Ratio eigmin/eigmax               1.50E-04  (threshold= 1.00E-09)
 Smallest eigenvalue of S kept     8.94E-04  (threshold= 8.94E-04, 0 functions deleted, 157 kept)
 
 Construction of CABS:
 Smallest eigenvalue of S          2.23E-06  (threshold= 1.00E-08)
 Ratio eigmin/eigmax               2.23E-06  (threshold= 1.00E-09)
 Smallest eigenvalue of S kept     2.23E-06  (threshold= 2.23E-06, 0 functions deleted, 157 kept)
 
 CPU time for CABS singles                        0.01 sec

 CABS-singles contribution of  -0.00095224 patched into reference energy.
 New reference energy         -76.06126896
 
 AO(A)-basis ORBITAL           loaded. Number of functions:      89
 RI(R)-basis CC-PVTZ-F12/OPTRI loaded. Number of functions:     157
 DF-basis AUG-CC-PVTZ/MP2FIT   loaded. Number of functions:     198

 Screening thresholds:   THRAO=  1.00D-10  THRMO=  1.00D-09  THRPROD=  1.00D-09
                         THRSW=  1.00D-05  THROV=  1.00D-12  THRAOF12=   1.00D-08

 CPU time for 3-index integral evaluation         0.46 sec
 CPU time for first  half transformation          0.01 sec (17636.1 MFLOP/sec)
 CPU time for fitting                             0.01 sec ( 8185.8 MFLOP/sec)
 CPU time for tilde quantities                    0.01 sec (10820.3 MFLOP/sec)
 CPU time for assembly                            0.02 sec (26756.3 MFLOP/sec)
 CPU time for tranop_f12                          0.02 sec (32596.5 MFLOP/sec)
 CPU time for f12 integrals (total)               0.58 sec, Elapsed time:      1.99 sec
 CPU time for f12 matrices (total)                0.01 sec, Elapsed time:      0.01 sec

 Diagonal F12 approximation with fixed coefficients:  TSING= 0.500,  TTRIP= 0.250 (scaled by -1/beta)

 DF-MP2-F12 energy corrections:
 ==============================
 Approx.                                    Singlet             Triplet             Total
 DF-MP2-F12/3*C(DX,FIX)                -0.025075374540     -0.002992436395     -0.028067810934
 DF-MP2-F12/3*C(FIX)                   -0.023325532992     -0.002712087121     -0.026037620113
 DF-MP2-F12/3C(FIX)                    -0.023248811691     -0.002807761591     -0.026056573282

 DF-MP2-F12 correlation energies:
 ================================
 Approx.                                    Singlet             Triplet             Ecorr            Total Energy
 DF-MP2                                -0.175807376465     -0.100288514381     -0.276095890846    -76.337364854338
 DF-MP2-F12/3*C(DX,FIX)                -0.200882751005     -0.103280950775     -0.304163701780    -76.365432665273
 DF-MP2-F12/3*C(FIX)                   -0.199132909457     -0.103000601501     -0.302133510959    -76.363402474451
 DF-MP2-F12/3C(FIX)                    -0.199056188156     -0.103096275971     -0.302152464127    -76.363421427620

 SCS-DF-MP2 energies (F_SING= 1.20000  F_TRIP= 0.62222  F_PARALLEL= 0.33333):
 ============================================================================
 SCS-DF-MP2                            -0.273370594039    -76.334639557532
 SCS-DF-MP2-F12/3*C(DX,FIX)            -0.305323003910    -76.366591967403
 SCS-DF-MP2-F12/3*C(FIX)               -0.303048754505    -76.364317717998
 SCS-DF-MP2-F12/3C(FIX)                -0.303016219725    -76.364285183217
 Symmetry transformation completed.

 Number of N-1 electron functions:               4
 Number of N-2 electron functions:              10
 Number of singly external CSFs:               336
 Number of doubly external CSFs:             56616
 Total number of CSFs:                       56953

 Length of J-op  integral file:               9.11 MB
 Length of K-op  integral file:              14.70 MB
 Length of 3-ext integral record:             0.00 MB

 Memory could be reduced to 4.35 Mwords without degradation in triples

 Integral transformation finished. Total CPU:   0.14 sec, npass=  1  Memory used:   2.09 MW

 Reference energy:                    -76.06126896

 Adding F12 terms to K(Cij), methodcc=6,  factor= 1.0

 ITER.      SQ.NORM     CORR.ENERGY   TOTAL ENERGY   ENERGY CHANGE        DEN1      VAR(S)    VAR(P)  DIIS     TIME  TIME/IT
   1      1.06365631    -0.27603397   -76.33730293     0.00010492     0.00631012  0.81D-03  0.11D-02  1  1     1.32     0.13
   2      1.06721482    -0.27577603   -76.33704499     0.00025794    -0.00483533  0.15D-04  0.12D-03  2  2     1.41     0.13
   3      1.06851490    -0.27591957   -76.33718853    -0.00014354    -0.00085858  0.98D-05  0.79D-05  3  3     1.53     0.13
   4      1.06912095    -0.27594312   -76.33721209    -0.00002356    -0.00038828  0.47D-06  0.62D-06  4  4     1.65     0.13
   5      1.06922311    -0.27594153   -76.33721050     0.00000159    -0.00002267  0.14D-06  0.39D-07  5  5     1.76     0.13
   6      1.06925060    -0.27594012   -76.33720909     0.00000141    -0.00000462  0.12D-07  0.39D-08  6  6     1.87     0.13
   7      1.06925753    -0.27593971   -76.33720867     0.00000042    -0.00000156  0.11D-08  0.30D-09  6  1     1.97     0.12
   8      1.06925914    -0.27593976   -76.33720873    -0.00000006    -0.00000001  0.85D-10  0.34D-10  6  2     2.07     0.12

 Norm of t1 vector:      0.03739317      S-energy:    -0.00000013      T1 diagnostic:  0.00934829
                                                                       D1 diagnostic:  0.01888936

 Adding energy correction from Wij-K(Fij), methodcc=6  factor= 1.0
 
  CCSD correlation energy              -0.275939764975
  MP2-F12 correction (uncoupled)       -0.024928754370
  C*T doubles correction               -0.000842120211
  f12b correction                       0.004288698761


 Total CPU time for triples:      0.51 sec


 RESULTS
 =======

  Reference energy                    -76.060316718764
  F12 singles correction               -0.000952244729

 F12 singles corrections added to reference energy

  New reference energy                -76.061268963492

  F12a singlet correction              -0.023069533704
  F12a triplet correction              -0.002701340877
  F12a total correction                -0.025770874580

 F12a corrections for ansatz F12/3C(FIX) added to CCSD energy
 
  CCSD-F12a singlet pair energy        -0.210674638351
  CCSD-F12a triplet pair energy        -0.091035867143
  CCSD-F12a correlation energy         -0.301710639556

  Triples (T) contribution             -0.009089858890
  Total correlation energy             -0.310800498446

  CCSD-F12a total energy              -76.362979603048
  CCSD[T]-F12a energy                 -76.372392492363
  CCSD-T-F12a energy                  -76.371926579349
 !CCSD(T)-F12a total energy           -76.372069461938

 F12b corrections for ansatz F12/3C(FIX) added to CCSD(T)-F12a energy

  CCSD-F12b singlet pair energy        -0.206696152261
  CCSD-F12b triplet pair energy        -0.090725654473
  CCSD-F12b correlation energy         -0.297421940795

  Triples (T) contribution             -0.009089858890
  Total correlation energy             -0.306511799685

  CCSD-F12b total energy              -76.358690904287
  CCSD[T]-F12b energy                 -76.368103793602
  CCSD-T-F12b energy                  -76.367637880588
 !CCSD(T)-F12b total energy           -76.367780763178

 Timing summary (sec):

 STEP                 CPU(USER)    SYS     CPU(TOT)    WALL
 Transformation          0.14      0.02      0.16      1.26
 CCSD iterations         0.91      0.14      1.05      1.07
 Triples                 0.51      0.03      0.54      0.53
 MP2-F12                 1.02      0.04      1.06      2.52
 F12b energy             0.09      0.01      0.10      0.10

 Program statistics:

 Available memory in ccsd:                49999786
 Min. memory needed in ccsd:                269472
 Max. memory used in ccsd:                  308684
 Max. memory used in cckext:                227914 ( 9 integral passes)



 **********************************************************************************************************************************
 DATASETS  * FILE   NREC   LENGTH (MB)   RECORD NAMES
              1      20       80.71       500      610      700      900      950      970     1000      129      960     1100   
                                          VAR    BASINP    GEOM    SYMINP    ZMAT    AOBASIS   BASIS     P2S    ABASIS      S 
                                         1400     1410     1200     1210     1080     1600     1650     1300     1700     1380   
                                           T        V       H0       H01     AOSYM     SMH    MOLCAS    ERIS     OPER     JKOP   

              2       6        3.11       700     1000      520     2100     7360     7350   
                                         GEOM     BASIS   MCVARS     RHF    F12ABS    EF12   

 PROGRAMS   *        TOTAL   CCSD(T)        HF       INT
 CPU TIMES  *         4.06      2.71      0.63      0.61
 REAL TIME  *        15.47 SEC
 DISK USED  *       186.03 MB      
 **********************************************************************************************************************************

 CCSD(T)-F12/cc-pVTZ-F12 energy=    -76.367780763178

     CCSD(T)-F12        HF-SCF  
    -76.36778076    -76.06031672
 **********************************************************************************************************************************
 Molpro calculation terminated
 Variable memory released
