
 Primary working directories    : /tmp/r2518/22915.maple
 Secondary working directories  : /tmp/r2518/22915.maple
 Wavefunction directory         : /ddn/home1/r2518/wfu/
 Main file repository           : /tmp/r2518/22915.maple/

 SHA1      : d5ffa45e93fdbca01ffc919aa182cfdae0147319
 NAME      : 2015.1.35
 ARCHNAME  : linux/x86_64
 FC        : /opt/intel/composer_xe_2015.1.133/bin/intel64/ifort
 BLASLIB   : -Wl,-_start-group /opt/intel/mkl/lib/intel64/libmkl_intel_ilp64.a /opt/intel/mkl/lib/intel64/libmkl_intel_thread.a /opt/intel/mkl/lib/intel64/libmkl_core.a -Wl,-_end-group
 id        : olemiss

 Nodes     nprocs
 cn096        1

 Using customized tuning parameters: mindgm=1; mindgv=20; mindgc=4; mindgr=1; noblas=0; minvec=7
 default implementation of scratch files=df  

 memory,50,m
 nocompress;
 geomtyp=xyz
 angstrom
 geometry={
 O,0.0,0.05,-0.1157441568
 H,0.0,0.7574590974,0.5217905143
 H,0.0,-0.7574590974,0.5217905143
 }
 basis=cc-pVTZ-F12
 set,charge=0
 set,spin=0
 hf
 {CCSD(T)-F12}

 Variables initialized (889), CPU time= 0.00 sec
 Commands  initialized (702), CPU time= 0.01 sec, 572 directives.
 Default parameters read. Elapsed time= 0.04 sec

 Checking input...
 Passed
1


                                         ***  PROGRAM SYSTEM MOLPRO  ***
                                       Copyright, TTI GmbH Stuttgart, 2015
                                    Version 2015.1 linked Jul  9 2018 13:16:40


 **********************************************************************************************************************************
 LABEL *                                                                                 
  64 bit serial version                                                                  DATE: 28-Aug-19          TIME: 15:37:36  
 **********************************************************************************************************************************

 SHA1:             d5ffa45e93fdbca01ffc919aa182cfdae0147319
 **********************************************************************************************************************************

 Input parameters for SORTINT:

 COMPRESS =    0.000000
 C_FINAL  =    1.000000
 DEBUG    =   -1.000000
 C_SORT1  =    0.000000
 C_SEWARD =    0.000000
 THRESH   =    0.000000
 IO       =  molpro                                                          
 SPRI     =    0.000000
 SETTING GEOMTYP        =    XYZ
 ZUNIT=ANG
 

 Variable memory set to   50000000 words,  buffer space   230000 words

 SETTING BASIS          =    CC-PVTZ-F12
 SETTING CHARGE         =     0.00000000D+00                                  
 SETTING SPIN           =     0.00000000D+00                                  


 Recomputing integrals since basis changed


 Using spherical harmonics

 Library entry O      S cc-pVTZ-F12          selected for orbital group  1
 Library entry O      P cc-pVTZ-F12          selected for orbital group  1
 Library entry O      D cc-pVTZ-F12          selected for orbital group  1
 Library entry O      F cc-pVTZ-F12          selected for orbital group  1
 Library entry H      S cc-pVTZ-F12          selected for orbital group  2
 Library entry H      P cc-pVTZ-F12          selected for orbital group  2
 Library entry H      D cc-pVTZ-F12          selected for orbital group  2


 PROGRAM * SEWARD (Integral evaluation for generally contracted gaussian basis sets)     Author: Roland Lindh, 1990

 Geometry written to block  1 of record 700


 Point group  Cs  



 ATOMIC COORDINATES

 NR  ATOM    CHARGE       X              Y              Z

   1  O       8.00    0.000000000    0.094486306   -0.218724757
   2  H       1.00    0.000000000    1.431390245    0.986041166
   3  H       1.00    0.000000000   -1.431390245    0.986041166

 Bond lengths in Bohr (Angstrom)

 1-2  1.799659154  1-3  1.944160533
     ( 0.952338612)     ( 1.028805448)

 Bond angles

  2-1-3   99.68296138

 NUCLEAR CHARGE:                   10
 NUMBER OF PRIMITIVE AOS:         114
 NUMBER OF SYMMETRY AOS:          103
 NUMBER OF CONTRACTIONS:           89   (  61A'  +  28A"  )
 NUMBER OF CORE ORBITALS:           1   (   1A'  +   0A"  )
 NUMBER OF VALENCE ORBITALS:        6   (   5A'  +   1A"  )


 NUCLEAR REPULSION ENERGY    8.90948348

 Eigenvalues of metric

         1 0.236E-03 0.500E-03 0.586E-03 0.723E-03 0.827E-03 0.163E-02 0.210E-02 0.226E-02
         2 0.695E-03 0.889E-02 0.133E-01 0.467E-01 0.843E-01 0.890E-01 0.143E+00 0.194E+00


 Contracted 2-electron integrals neglected if value below      1.0D-11

        3628611. INTEGRALS WRITTEN OUT IN     887 BLOCKS ON RECORD 1290 OF FILE 1


 NUMBER OF SORTED TWO-ELECTRON INTEGRALS:    4174745.     BUFFER LENGTH:  32768
 NUMBER OF SEGMENTS:   1  SEGMENT LENGTH:    4174745      RECORD LENGTH: 524288

 Memory used in sort:       4.73 MW

 SORT1 READ     3628611. AND WROTE     3690335. INTEGRALS IN     11 RECORDS. CPU TIME:     0.04 SEC, REAL TIME:     0.08 SEC
 SORT2 READ     3690335. AND WROTE     4174745. INTEGRALS IN      1 RECORDS. CPU TIME:     0.07 SEC, REAL TIME:     0.10 SEC

 FILE SIZES:   FILE 1:    78.3 MBYTE,  FILE 4:    46.2 MBYTE,   TOTAL:    124.4 MBYTE

 OPERATOR DM      FOR CENTER  0  COORDINATES:    0.000000    0.000000    0.000000


 **********************************************************************************************************************************
 DATASETS  * FILE   NREC   LENGTH (MB)   RECORD NAMES
              1      19       50.78       500      610      700      900      950      970     1000      129      960     1100   
                                          VAR    BASINP    GEOM    SYMINP    ZMAT    AOBASIS   BASIS     P2S    ABASIS      S 
                                         1400     1410     1200     1210     1080     1600     1650     1300     1700   
                                           T        V       H0       H01     AOSYM     SMH    MOLCAS    ERIS     OPER   

 PROGRAMS   *        TOTAL       INT
 CPU TIMES  *         0.46      0.38
 REAL TIME  *         0.82 SEC
 DISK USED  *       124.76 MB      
 **********************************************************************************************************************************


 PROGRAM * RHF-SCF (CLOSED SHELL)       Authors: W. Meyer, H.-J. Werner


 NUMBER OF ELECTRONS:       5+    5-
 CONVERGENCE THRESHOLDS:    1.00E-05 (Density)    1.00E-07 (Energy)
 MAX. NUMBER OF ITERATIONS:       60
 INTERPOLATION TYPE:            DIIS
 INTERPOLATION STEPS:              2 (START)      1 (STEP)
 LEVEL SHIFTS:                  0.00 (CLOSED)  0.00 (OPEN) 



 Orbital guess generated from atomic densities. Full valence occupancy:    6   1

 Molecular orbital dump at record        2100.2

 Initial occupancy:   4   1

 ITERATION    DDIFF          GRAD             ENERGY        2-EL.EN.            DIPOLE MOMENTS         DIIS   ORB.
    1      0.000D+00      0.000D+00       -76.01770686     77.257447    0.00000   -0.12041    1.22849    0    start
    2      0.000D+00      0.137D-01       -76.04530491     73.533705    0.00000   -0.04388    0.69869    1    diag
    3      0.148D-01      0.893D-02       -76.05773459     75.205716    0.00000   -0.05832    0.83357    2    diag
    4      0.527D-02      0.837D-03       -76.05794702     75.111892    0.00000   -0.05295    0.82760    3    diag
    5      0.749D-03      0.248D-03       -76.05797364     75.128148    0.00000   -0.05059    0.82544    4    diag
    6      0.290D-03      0.524D-04       -76.05797557     75.126820    0.00000   -0.04980    0.82484    5    diag
    7      0.846D-04      0.109D-04       -76.05797567     75.126966    0.00000   -0.04959    0.82467    6    diag
    8      0.190D-04      0.183D-05       -76.05797567     75.126950    0.00000   -0.04957    0.82464    7    diag
    9      0.343D-05      0.236D-06       -76.05797567     75.126933    0.00000   -0.04957    0.82463    0    orth

 Final occupancy:   4   1

 !RHF STATE 1.1 Energy                -76.057975671425
 Nuclear energy                         8.90948348
 One-electron energy                 -122.53092555
 Two-electron energy                   37.56346639
 Virial quotient                       -1.00223630
 !RHF STATE 1.1 Dipole moment           0.00000000    -0.04956869     0.82463177
 Dipole moment /Debye                   0.00000000    -0.12598280     2.09586761

 Orbital energies:

         1.1          2.1          3.1          4.1          5.1          6.1
    -20.572477    -1.341034    -0.691703    -0.587269     0.100574     0.123150

         1.2          2.2          3.2
     -0.509513     0.145478     0.481914

 HOMO      1.2    -0.509513 =     -13.8646eV
 LUMO      5.1     0.100574 =       2.7368eV
 LUMO-HOMO         0.610087 =      16.6013eV


 **********************************************************************************************************************************
 DATASETS  * FILE   NREC   LENGTH (MB)   RECORD NAMES
              1      19       50.78       500      610      700      900      950      970     1000      129      960     1100   
                                          VAR    BASINP    GEOM    SYMINP    ZMAT    AOBASIS   BASIS     P2S    ABASIS      S 
                                         1400     1410     1200     1210     1080     1600     1650     1300     1700   
                                           T        V       H0       H01     AOSYM     SMH    MOLCAS    ERIS     OPER   

              2       4        2.88       700     1000      520     2100   
                                         GEOM     BASIS   MCVARS     RHF  

 PROGRAMS   *        TOTAL        HF       INT
 CPU TIMES  *         0.67      0.21      0.38
 REAL TIME  *         1.11 SEC
 DISK USED  *       124.76 MB      
 **********************************************************************************************************************************


 PROGRAM * CCSD (Closed-shell coupled cluster)     Authors: C. Hampel, H.-J. Werner, 1991, M. Deegan, P.J. Knowles, 1992

                                  CCSD-F12 implementation by  H.-J. Werner, 2007

                   Density fitting integral evaluation by F.R. Manby, 2003,2007, G. Knizia, 2010

 Basis set AUG-CC-PVTZ/JKFIT generated.  Number of basis functions:   196 
 Basis set CC-PVTZ-F12/OPTRI generated.  Number of basis functions:   157 
 Basis set AUG-CC-PVTZ/MP2FIT generated. Number of basis functions:   198 

 Convergence thresholds:  THRVAR = 1.00D-08  THRDEN = 1.00D-06

 CCSD(T)     terms to be evaluated (factor= 1.000)


 Number of core orbitals:           1 (   1   0 )
 Number of closed-shell orbitals:   4 (   3   1 )
 Number of external orbitals:      84 (  57  27 )

 Molecular orbitals read from record     2100.2  Type=RHF/CANONICAL (state 1.1)

 MP2-F12 correlation treatment (H.-J. Werner, 2006)
 ==================================================

 Using MP2-F12 with ansatz 3C(FIX)

 Using projected zeroth-order Hamiltonian (+Z)

 FOCKRIB=T FOCKRIC=T FOCKRIP=T CABSP=T CABSA=T CABSK=T CABSF=T GBC=F EBC=F DMAT=T NOFIK=T NOPAO=1 SOLVE=-1  USEPAO=0
 EXCH_A= T EXCH_B= F EXCH_C= F EXCH_P= F
 
 Geminal basis:    OPTFULL  GEM_TYPE=SLATER  BETA=1.0  NGEM=6

 Optimizing Gaussian exponents for each gem_beta

 Geminal optimization for beta= 1.0000
 Weight function:   m=0, omega= 1.4646

 Augmented Hessian optimization of geminal fit. Trust ratio= 0.40000
 Convergence reached after   2 iterations. Final gradient= 8.41D-16, Step= 4.29D-06, Delta= 1.28D-09
 
 Alpha:                 0.19532     0.81920     2.85917     9.50073    35.69989   197.79328
 Coeff:                 0.27070     0.30552     0.18297     0.10986     0.06810     0.04224
 

 Symmetry turned off. Reference energy:        -76.057975671425

 All pairs explicitly correlated. Number of r12-pairs:           10

 Excluding core orbitals from MO domains
 
 AO(A)-basis ORBITAL           loaded. Number of functions:      89
 RI(R)-basis CC-PVTZ-F12/OPTRI loaded. Number of functions:     157
 DF-basis AUG-CC-PVTZ/JKFIT    loaded. Number of functions:     196

 Screening thresholds:   THRAO=  1.00D-10  THRMO=  1.00D-09  THRPROD=  1.00D-09
                         THRSW=  1.00D-05  THROV=  1.00D-12  THRAOF12=   1.00D-08

 CPU time for Fock operators                      0.79 sec
 
 Construction of ABS:
 Smallest eigenvalue of S          7.95E-04  (threshold= 1.00E-08)
 Ratio eigmin/eigmax               1.34E-04  (threshold= 1.00E-09)
 Smallest eigenvalue of S kept     7.95E-04  (threshold= 7.95E-04, 0 functions deleted, 157 kept)
 
 Construction of CABS:
 Smallest eigenvalue of S          2.11E-06  (threshold= 1.00E-08)
 Ratio eigmin/eigmax               2.11E-06  (threshold= 1.00E-09)
 Smallest eigenvalue of S kept     2.11E-06  (threshold= 2.11E-06, 0 functions deleted, 157 kept)
 
 CPU time for CABS singles                        0.01 sec

 CABS-singles contribution of  -0.00095597 patched into reference energy.
 New reference energy         -76.05893164
 
 AO(A)-basis ORBITAL           loaded. Number of functions:      89
 RI(R)-basis CC-PVTZ-F12/OPTRI loaded. Number of functions:     157
 DF-basis AUG-CC-PVTZ/MP2FIT   loaded. Number of functions:     198

 Screening thresholds:   THRAO=  1.00D-10  THRMO=  1.00D-09  THRPROD=  1.00D-09
                         THRSW=  1.00D-05  THROV=  1.00D-12  THRAOF12=   1.00D-08

 CPU time for 3-index integral evaluation         0.40 sec
 CPU time for first  half transformation          0.03 sec ( 5878.7 MFLOP/sec)
 CPU time for fitting                             0.01 sec ( 8185.8 MFLOP/sec)
 CPU time for tilde quantities                    0.01 sec (10820.3 MFLOP/sec)
 CPU time for assembly                            0.01 sec (53512.5 MFLOP/sec)
 CPU time for tranop_f12                          0.03 sec (21731.0 MFLOP/sec)
 CPU time for f12 integrals (total)               1.22 sec, Elapsed time:      1.23 sec
 CPU time for f12 matrices (total)                0.01 sec, Elapsed time:      0.01 sec

 Diagonal F12 approximation with fixed coefficients:  TSING= 0.500,  TTRIP= 0.250 (scaled by -1/beta)

 DF-MP2-F12 energy corrections:
 ==============================
 Approx.                                    Singlet             Triplet             Total
 DF-MP2-F12/3*C(DX,FIX)                -0.025086897800     -0.002994323285     -0.028081221086
 DF-MP2-F12/3*C(FIX)                   -0.023333726957     -0.002713382280     -0.026047109237
 DF-MP2-F12/3C(FIX)                    -0.023255370442     -0.002808836358     -0.026064206800

 DF-MP2-F12 correlation energies:
 ================================
 Approx.                                    Singlet             Triplet             Ecorr            Total Energy
 DF-MP2                                -0.175819307064     -0.100253699603     -0.276073006666    -76.335004647222
 DF-MP2-F12/3*C(DX,FIX)                -0.200906204864     -0.103248022888     -0.304154227752    -76.363085868308
 DF-MP2-F12/3*C(FIX)                   -0.199153034021     -0.102967081883     -0.302120115903    -76.361051756459
 DF-MP2-F12/3C(FIX)                    -0.199074677506     -0.103062535960     -0.302137213466    -76.361068854022

 SCS-DF-MP2 energies (F_SING= 1.20000  F_TRIP= 0.62222  F_PARALLEL= 0.33333):
 ============================================================================
 SCS-DF-MP2                            -0.273363248229    -76.332294888785
 SCS-DF-MP2-F12/3*C(DX,FIX)            -0.305330660078    -76.364262300634
 SCS-DF-MP2-F12/3*C(FIX)               -0.303052047330    -76.361983687885
 SCS-DF-MP2-F12/3C(FIX)                -0.303017413160    -76.361949053715

 Symmetry restored.
 Symmetry transformation completed.

 Number of N-1 electron functions:               4
 Number of N-2 electron functions:              10
 Number of singly external CSFs:               198
 Number of doubly external CSFs:             29292
 Total number of CSFs:                       29491

 Length of J-op  integral file:               8.97 MB
 Length of K-op  integral file:              13.62 MB
 Length of 3-ext integral record:             0.00 MB

 Memory could be reduced to 2.37 Mwords without degradation in triples

 Integral transformation finished. Total CPU:   0.05 sec, npass=  1  Memory used:   0.62 MW

 Reference energy:                    -76.05893164

 Adding F12 terms to K(Cij), methodcc=6,  factor= 1.0

 ITER.      SQ.NORM     CORR.ENERGY   TOTAL ENERGY   ENERGY CHANGE        DEN1      VAR(S)    VAR(P)  DIIS     TIME  TIME/IT
   1      1.06370882    -0.27604057   -76.33497221     0.00007548     0.00629222  0.81D-03  0.11D-02  1  1     2.30     0.06
   2      1.06729114    -0.27578802   -76.33471966     0.00025255    -0.00484408  0.15D-04  0.12D-03  2  2     2.34     0.06
   3      1.06860876    -0.27593307   -76.33486471    -0.00014505    -0.00086440  0.99D-05  0.81D-05  3  3     2.39     0.05
   4      1.06922471    -0.27595673   -76.33488837    -0.00002366    -0.00039190  0.47D-06  0.63D-06  4  4     2.44     0.05
   5      1.06932843    -0.27595508   -76.33488672     0.00000165    -0.00002297  0.14D-06  0.40D-07  5  5     2.49     0.05
   6      1.06935605    -0.27595367   -76.33488531     0.00000141    -0.00000462  0.12D-07  0.39D-08  6  6     2.53     0.05
   7      1.06936301    -0.27595325   -76.33488490     0.00000042    -0.00000157  0.11D-08  0.31D-09  6  1     2.57     0.05
   8      1.06936463    -0.27595331   -76.33488495    -0.00000006    -0.00000001  0.88D-10  0.35D-10  6  2     2.61     0.05

 Norm of t1 vector:      0.03753804      S-energy:    -0.00000014      T1 diagnostic:  0.00938451
                                                                       D1 diagnostic:  0.01890408

 Adding energy correction from Wij-K(Fij), methodcc=6  factor= 1.0
 
  CCSD correlation energy              -0.275953312797
  MP2-F12 correction (uncoupled)       -0.024938806688
  C*T doubles correction               -0.000841277259
  f12b correction                       0.004288459899


 Total CPU time for triples:      0.19 sec


 RESULTS
 =======

  Reference energy                    -76.057975671425
  F12 singles correction               -0.000955969130

 F12 singles corrections added to reference energy

  New reference energy                -76.058931640555

  F12a singlet correction              -0.023077567714
  F12a triplet correction              -0.002702516234
  F12a total correction                -0.025780083947

 F12a corrections for ansatz F12/3C(FIX) added to CCSD energy
 
  CCSD-F12a singlet pair energy        -0.210725203402
  CCSD-F12a triplet pair energy        -0.091008056468
  CCSD-F12a correlation energy         -0.301733396744

  Triples (T) contribution             -0.009091211739
  Total correlation energy             -0.310824608483

  CCSD-F12a total energy              -76.360665037300
  CCSD[T]-F12a energy                 -76.370080272464
  CCSD-T-F12a energy                  -76.369612689572
 !CCSD(T)-F12a total energy           -76.369756249039

 F12b corrections for ansatz F12/3C(FIX) added to CCSD(T)-F12a energy

  CCSD-F12b singlet pair energy        -0.206746908771
  CCSD-F12b triplet pair energy        -0.090697891201
  CCSD-F12b correlation energy         -0.297444936845

  Triples (T) contribution             -0.009091211739
  Total correlation energy             -0.306536148584

  CCSD-F12b total energy              -76.356376577400
  CCSD[T]-F12b energy                 -76.365791812565
  CCSD-T-F12b energy                  -76.365324229673
 !CCSD(T)-F12b total energy           -76.365467789140

 Timing summary (sec):

 STEP                 CPU(USER)    SYS     CPU(TOT)    WALL
 Transformation          0.06      0.01      0.07      0.22
 CCSD iterations         0.42      0.06      0.48      0.49
 Triples                 0.19      0.00      0.19      0.19
 MP2-F12                 2.14      0.04      2.18      2.18
 F12b energy             0.04      0.00      0.04      0.04

 Program statistics:

 Available memory in ccsd:                49999786
 Min. memory needed in ccsd:                145972
 Max. memory used in ccsd:                  166319
 Max. memory used in cckext:                248663 ( 9 integral passes)



 **********************************************************************************************************************************
 DATASETS  * FILE   NREC   LENGTH (MB)   RECORD NAMES
              1      20       56.28       500      610      700      900      950      970     1000      129      960     1100   
                                          VAR    BASINP    GEOM    SYMINP    ZMAT    AOBASIS   BASIS     P2S    ABASIS      S 
                                         1400     1410     1200     1210     1080     1600     1650     1300     1700     1380   
                                           T        V       H0       H01     AOSYM     SMH    MOLCAS    ERIS     OPER     JKOP   

              2       6        2.97       700     1000      520     2100     7360     7350   
                                         GEOM     BASIS   MCVARS     RHF    F12ABS    EF12   

 PROGRAMS   *        TOTAL   CCSD(T)        HF       INT
 CPU TIMES  *         3.55      2.87      0.21      0.38
 REAL TIME  *         4.28 SEC
 DISK USED  *       124.76 MB      
 **********************************************************************************************************************************

 CCSD(T)-F12/cc-pVTZ-F12 energy=    -76.365467789140

     CCSD(T)-F12        HF-SCF  
    -76.36546779    -76.05797567
 **********************************************************************************************************************************
 Molpro calculation terminated
 Variable memory released
