
 Primary working directories    : /tmp/r2518/22911.maple
 Secondary working directories  : /tmp/r2518/22911.maple
 Wavefunction directory         : /ddn/home1/r2518/wfu/
 Main file repository           : /tmp/r2518/22911.maple/

 SHA1      : d5ffa45e93fdbca01ffc919aa182cfdae0147319
 NAME      : 2015.1.35
 ARCHNAME  : linux/x86_64
 FC        : /opt/intel/composer_xe_2015.1.133/bin/intel64/ifort
 BLASLIB   : -Wl,-_start-group /opt/intel/mkl/lib/intel64/libmkl_intel_ilp64.a /opt/intel/mkl/lib/intel64/libmkl_intel_thread.a /opt/intel/mkl/lib/intel64/libmkl_core.a -Wl,-_end-group
 id        : olemiss

 Nodes     nprocs
 cn058        1

 Using customized tuning parameters: mindgm=1; mindgv=20; mindgc=4; mindgr=1; noblas=0; minvec=7
 default implementation of scratch files=df  

 memory,50,m
 nocompress;
 geomtyp=xyz
 angstrom
 geometry={
 O,0.0,-0.05,-0.0657441568
 H,0.0,0.7574590974,0.5717905143
 H,0.0,-0.7574590974,0.5217905143
 }
 basis=cc-pVTZ-F12
 set,charge=0
 set,spin=0
 hf
 {CCSD(T)-F12}

 Variables initialized (889), CPU time= 0.00 sec
 Commands  initialized (702), CPU time= 0.01 sec, 572 directives.
 Default parameters read. Elapsed time= 0.06 sec

 Checking input...
 Passed
1


                                         ***  PROGRAM SYSTEM MOLPRO  ***
                                       Copyright, TTI GmbH Stuttgart, 2015
                                    Version 2015.1 linked Jul  9 2018 13:16:40


 **********************************************************************************************************************************
 LABEL *                                                                                 
  64 bit serial version                                                                  DATE: 28-Aug-19          TIME: 15:37:34  
 **********************************************************************************************************************************

 SHA1:             d5ffa45e93fdbca01ffc919aa182cfdae0147319
 **********************************************************************************************************************************

 Input parameters for SORTINT:

 COMPRESS =    0.000000
 C_FINAL  =    1.000000
 DEBUG    =   -1.000000
 C_SORT1  =    0.000000
 C_SEWARD =    0.000000
 THRESH   =    0.000000
 IO       =  molpro                                                          
 SPRI     =    0.000000
 SETTING GEOMTYP        =    XYZ
 ZUNIT=ANG
 

 Variable memory set to   50000000 words,  buffer space   230000 words

 SETTING BASIS          =    CC-PVTZ-F12
 SETTING CHARGE         =     0.00000000D+00                                  
 SETTING SPIN           =     0.00000000D+00                                  


 Recomputing integrals since basis changed


 Using spherical harmonics

 Library entry O      S cc-pVTZ-F12          selected for orbital group  1
 Library entry O      P cc-pVTZ-F12          selected for orbital group  1
 Library entry O      D cc-pVTZ-F12          selected for orbital group  1
 Library entry O      F cc-pVTZ-F12          selected for orbital group  1
 Library entry H      S cc-pVTZ-F12          selected for orbital group  2
 Library entry H      P cc-pVTZ-F12          selected for orbital group  2
 Library entry H      D cc-pVTZ-F12          selected for orbital group  2


 PROGRAM * SEWARD (Integral evaluation for generally contracted gaussian basis sets)     Author: Roland Lindh, 1990

 Geometry written to block  1 of record 700


 Point group  Cs  



 ATOMIC COORDINATES

 NR  ATOM    CHARGE       X              Y              Z

   1  O       8.00    0.000000000   -0.094486306   -0.124238451
   2  H       1.00    0.000000000    1.431390245    1.080527473
   3  H       1.00    0.000000000   -1.431390245    0.986041166

 Bond lengths in Bohr (Angstrom)

 1-2  1.944160533  1-3  1.737824205
     ( 1.028805448)     ( 0.919616966)

 Bond angles

  2-1-3  101.99776288

 NUCLEAR CHARGE:                   10
 NUMBER OF PRIMITIVE AOS:         114
 NUMBER OF SYMMETRY AOS:          103
 NUMBER OF CONTRACTIONS:           89   (  61A'  +  28A"  )
 NUMBER OF CORE ORBITALS:           1   (   1A'  +   0A"  )
 NUMBER OF VALENCE ORBITALS:        6   (   5A'  +   1A"  )


 NUCLEAR REPULSION ENERGY    9.06746476

 Eigenvalues of metric

         1 0.217E-03 0.484E-03 0.580E-03 0.715E-03 0.811E-03 0.160E-02 0.203E-02 0.220E-02
         2 0.692E-03 0.749E-02 0.132E-01 0.451E-01 0.835E-01 0.893E-01 0.134E+00 0.188E+00


 Contracted 2-electron integrals neglected if value below      1.0D-11

        3676691. INTEGRALS WRITTEN OUT IN     898 BLOCKS ON RECORD 1290 OF FILE 1


 NUMBER OF SORTED TWO-ELECTRON INTEGRALS:    4174745.     BUFFER LENGTH:  32768
 NUMBER OF SEGMENTS:   1  SEGMENT LENGTH:    4174745      RECORD LENGTH: 524288

 Memory used in sort:       4.73 MW

 SORT1 READ     3676691. AND WROTE     3739807. INTEGRALS IN     11 RECORDS. CPU TIME:     0.12 SEC, REAL TIME:     0.16 SEC
 SORT2 READ     3739807. AND WROTE     4174745. INTEGRALS IN      1 RECORDS. CPU TIME:     0.11 SEC, REAL TIME:     0.13 SEC

 FILE SIZES:   FILE 1:    79.0 MBYTE,  FILE 4:    46.2 MBYTE,   TOTAL:    125.2 MBYTE

 OPERATOR DM      FOR CENTER  0  COORDINATES:    0.000000    0.000000    0.000000


 **********************************************************************************************************************************
 DATASETS  * FILE   NREC   LENGTH (MB)   RECORD NAMES
              1      19       51.17       500      610      700      900      950      970     1000      129      960     1100   
                                          VAR    BASINP    GEOM    SYMINP    ZMAT    AOBASIS   BASIS     P2S    ABASIS      S 
                                         1400     1410     1200     1210     1080     1600     1650     1300     1700   
                                           T        V       H0       H01     AOSYM     SMH    MOLCAS    ERIS     OPER   

 PROGRAMS   *        TOTAL       INT
 CPU TIMES  *         0.74      0.64
 REAL TIME  *         1.19 SEC
 DISK USED  *       125.48 MB      
 **********************************************************************************************************************************


 PROGRAM * RHF-SCF (CLOSED SHELL)       Authors: W. Meyer, H.-J. Werner


 NUMBER OF ELECTRONS:       5+    5-
 CONVERGENCE THRESHOLDS:    1.00E-05 (Density)    1.00E-07 (Energy)
 MAX. NUMBER OF ITERATIONS:       60
 INTERPOLATION TYPE:            DIIS
 INTERPOLATION STEPS:              2 (START)      1 (STEP)
 LEVEL SHIFTS:                  0.00 (CLOSED)  0.00 (OPEN) 



 Orbital guess generated from atomic densities. Full valence occupancy:    6   1

 Molecular orbital dump at record        2100.2

 Initial occupancy:   4   1

 ITERATION    DDIFF          GRAD             ENERGY        2-EL.EN.            DIPOLE MOMENTS         DIIS   ORB.
    1      0.000D+00      0.000D+00       -76.01808834     77.515739    0.00000    0.13145    1.18584    0    start
    2      0.000D+00      0.138D-01       -76.04576125     73.817357    0.00000    0.04129    0.68860    1    diag
    3      0.149D-01      0.879D-02       -76.05770427     75.455952    0.00000    0.05682    0.81323    2    diag
    4      0.521D-02      0.827D-03       -76.05791474     75.364670    0.00000    0.04970    0.80811    3    diag
    5      0.755D-03      0.241D-03       -76.05793967     75.379773    0.00000    0.04670    0.80613    4    diag
    6      0.282D-03      0.506D-04       -76.05794146     75.378545    0.00000    0.04572    0.80559    5    diag
    7      0.817D-04      0.106D-04       -76.05794155     75.378681    0.00000    0.04547    0.80541    6    diag
    8      0.182D-04      0.186D-05       -76.05794155     75.378667    0.00000    0.04544    0.80537    7    diag
    9      0.338D-05      0.263D-06       -76.05794155     75.378651    0.00000    0.04544    0.80537    0    orth

 Final occupancy:   4   1

 !RHF STATE 1.1 Energy                -76.057941549670
 Nuclear energy                         9.06746476
 One-electron energy                 -122.81473197
 Two-electron energy                   37.68932566
 Virial quotient                       -1.00136945
 !RHF STATE 1.1 Dipole moment           0.00000000     0.04544172     0.80536532
 Dipole moment /Debye                   0.00000000     0.11549376     2.04690038

 Orbital energies:

         1.1          2.1          3.1          4.1          5.1          6.1
    -20.568335    -1.348931    -0.705128    -0.585479     0.100554     0.121957

         1.2          2.2          3.2
     -0.510168     0.145352     0.480334

 HOMO      1.2    -0.510168 =     -13.8824eV
 LUMO      5.1     0.100554 =       2.7362eV
 LUMO-HOMO         0.610722 =      16.6186eV


 **********************************************************************************************************************************
 DATASETS  * FILE   NREC   LENGTH (MB)   RECORD NAMES
              1      19       51.17       500      610      700      900      950      970     1000      129      960     1100   
                                          VAR    BASINP    GEOM    SYMINP    ZMAT    AOBASIS   BASIS     P2S    ABASIS      S 
                                         1400     1410     1200     1210     1080     1600     1650     1300     1700   
                                           T        V       H0       H01     AOSYM     SMH    MOLCAS    ERIS     OPER   

              2       4        2.88       700     1000      520     2100   
                                         GEOM     BASIS   MCVARS     RHF  

 PROGRAMS   *        TOTAL        HF       INT
 CPU TIMES  *         0.99      0.25      0.64
 REAL TIME  *         1.53 SEC
 DISK USED  *       125.48 MB      
 **********************************************************************************************************************************


 PROGRAM * CCSD (Closed-shell coupled cluster)     Authors: C. Hampel, H.-J. Werner, 1991, M. Deegan, P.J. Knowles, 1992

                                  CCSD-F12 implementation by  H.-J. Werner, 2007

                   Density fitting integral evaluation by F.R. Manby, 2003,2007, G. Knizia, 2010

 Basis set AUG-CC-PVTZ/JKFIT generated.  Number of basis functions:   196 
 Basis set CC-PVTZ-F12/OPTRI generated.  Number of basis functions:   157 
 Basis set AUG-CC-PVTZ/MP2FIT generated. Number of basis functions:   198 

 Convergence thresholds:  THRVAR = 1.00D-08  THRDEN = 1.00D-06

 CCSD(T)     terms to be evaluated (factor= 1.000)


 Number of core orbitals:           1 (   1   0 )
 Number of closed-shell orbitals:   4 (   3   1 )
 Number of external orbitals:      84 (  57  27 )

 Molecular orbitals read from record     2100.2  Type=RHF/CANONICAL (state 1.1)

 MP2-F12 correlation treatment (H.-J. Werner, 2006)
 ==================================================

 Using MP2-F12 with ansatz 3C(FIX)

 Using projected zeroth-order Hamiltonian (+Z)

 FOCKRIB=T FOCKRIC=T FOCKRIP=T CABSP=T CABSA=T CABSK=T CABSF=T GBC=F EBC=F DMAT=T NOFIK=T NOPAO=1 SOLVE=-1  USEPAO=0
 EXCH_A= T EXCH_B= F EXCH_C= F EXCH_P= F
 
 Geminal basis:    OPTFULL  GEM_TYPE=SLATER  BETA=1.0  NGEM=6

 Optimizing Gaussian exponents for each gem_beta

 Geminal optimization for beta= 1.0000
 Weight function:   m=0, omega= 1.4646

 Augmented Hessian optimization of geminal fit. Trust ratio= 0.40000
 Convergence reached after   2 iterations. Final gradient= 8.41D-16, Step= 4.29D-06, Delta= 1.28D-09
 
 Alpha:                 0.19532     0.81920     2.85917     9.50073    35.69989   197.79328
 Coeff:                 0.27070     0.30552     0.18297     0.10986     0.06810     0.04224
 

 Symmetry turned off. Reference energy:        -76.057941549670

 All pairs explicitly correlated. Number of r12-pairs:           10

 Excluding core orbitals from MO domains
 
 AO(A)-basis ORBITAL           loaded. Number of functions:      89
 RI(R)-basis CC-PVTZ-F12/OPTRI loaded. Number of functions:     157
 DF-basis AUG-CC-PVTZ/JKFIT    loaded. Number of functions:     196

 Screening thresholds:   THRAO=  1.00D-10  THRMO=  1.00D-09  THRPROD=  1.00D-09
                         THRSW=  1.00D-05  THROV=  1.00D-12  THRAOF12=   1.00D-08

 CPU time for Fock operators                      1.05 sec
 
 Construction of ABS:
 Smallest eigenvalue of S          7.20E-04  (threshold= 1.00E-08)
 Ratio eigmin/eigmax               1.21E-04  (threshold= 1.00E-09)
 Smallest eigenvalue of S kept     7.20E-04  (threshold= 7.20E-04, 0 functions deleted, 157 kept)
 
 Construction of CABS:
 Smallest eigenvalue of S          1.84E-06  (threshold= 1.00E-08)
 Ratio eigmin/eigmax               1.84E-06  (threshold= 1.00E-09)
 Smallest eigenvalue of S kept     1.84E-06  (threshold= 1.84E-06, 0 functions deleted, 157 kept)
 
 CPU time for CABS singles                        0.02 sec

 CABS-singles contribution of  -0.00098909 patched into reference energy.
 New reference energy         -76.05893064
 
 AO(A)-basis ORBITAL           loaded. Number of functions:      89
 RI(R)-basis CC-PVTZ-F12/OPTRI loaded. Number of functions:     157
 DF-basis AUG-CC-PVTZ/MP2FIT   loaded. Number of functions:     198

 Screening thresholds:   THRAO=  1.00D-10  THRMO=  1.00D-09  THRPROD=  1.00D-09
                         THRSW=  1.00D-05  THROV=  1.00D-12  THRAOF12=   1.00D-08

 CPU time for 3-index integral evaluation         0.55 sec
 CPU time for first  half transformation          0.03 sec ( 5878.7 MFLOP/sec)
 CPU time for sorting                             0.01 sec
 CPU time for assembly                            0.01 sec (53512.5 MFLOP/sec)
 CPU time for tranop_f12                          0.04 sec (16298.2 MFLOP/sec)
 CPU time for f12 integrals (total)               1.55 sec, Elapsed time:      1.56 sec
 CPU time for f12 matrices (total)                0.01 sec, Elapsed time:      0.02 sec

 Diagonal F12 approximation with fixed coefficients:  TSING= 0.500,  TTRIP= 0.250 (scaled by -1/beta)

 DF-MP2-F12 energy corrections:
 ==============================
 Approx.                                    Singlet             Triplet             Total
 DF-MP2-F12/3*C(DX,FIX)                -0.025193798739     -0.003011098523     -0.028204897262
 DF-MP2-F12/3*C(FIX)                   -0.023412795754     -0.002724364266     -0.026137160020
 DF-MP2-F12/3C(FIX)                    -0.023333742243     -0.002820001543     -0.026153743786

 DF-MP2-F12 correlation energies:
 ================================
 Approx.                                    Singlet             Triplet             Ecorr            Total Energy
 DF-MP2                                -0.174820528448     -0.099664989907     -0.274485518355    -76.333416154604
 DF-MP2-F12/3*C(DX,FIX)                -0.200014327188     -0.102676088430     -0.302690415617    -76.361621051866
 DF-MP2-F12/3*C(FIX)                   -0.198233324203     -0.102389354172     -0.300622678375    -76.359553314624
 DF-MP2-F12/3C(FIX)                    -0.198154270691     -0.102484991450     -0.300639262141    -76.359569898390

 SCS-DF-MP2 energies (F_SING= 1.20000  F_TRIP= 0.62222  F_PARALLEL= 0.33333):
 ============================================================================
 SCS-DF-MP2                            -0.271798405636    -76.330729041885
 SCS-DF-MP2-F12/3*C(DX,FIX)            -0.303904536537    -76.362835172786
 SCS-DF-MP2-F12/3*C(FIX)               -0.301588920528    -76.360519556778
 SCS-DF-MP2-F12/3C(FIX)                -0.301553563954    -76.360484200203

 Symmetry restored.
 Symmetry transformation completed.

 Number of N-1 electron functions:               4
 Number of N-2 electron functions:              10
 Number of singly external CSFs:               198
 Number of doubly external CSFs:             29292
 Total number of CSFs:                       29491

 Length of J-op  integral file:               8.97 MB
 Length of K-op  integral file:              13.62 MB
 Length of 3-ext integral record:             0.00 MB

 Memory could be reduced to 2.37 Mwords without degradation in triples

 Integral transformation finished. Total CPU:   0.06 sec, npass=  1  Memory used:   0.62 MW

 Reference energy:                    -76.05893064

 Adding F12 terms to K(Cij), methodcc=6,  factor= 1.0

 ITER.      SQ.NORM     CORR.ENERGY   TOTAL ENERGY   ENERGY CHANGE        DEN1      VAR(S)    VAR(P)  DIIS     TIME  TIME/IT
   1      1.06261124    -0.27469277   -76.33362340    -0.00016434     0.00583472  0.77D-03  0.10D-02  1  1     2.94     0.07
   2      1.06602641    -0.27444091   -76.33337154     0.00025186    -0.00468093  0.14D-04  0.11D-03  2  2     3.01     0.07
   3      1.06726053    -0.27457684   -76.33350748    -0.00013594    -0.00082599  0.92D-05  0.74D-05  3  3     3.08     0.07
   4      1.06783067    -0.27459918   -76.33352981    -0.00002233    -0.00036845  0.44D-06  0.58D-06  4  4     3.14     0.08
   5      1.06792699    -0.27459750   -76.33352814     0.00000167    -0.00002113  0.13D-06  0.35D-07  5  5     3.20     0.08
   6      1.06795245    -0.27459617   -76.33352681     0.00000133    -0.00000420  0.11D-07  0.35D-08  6  6     3.27     0.08
   7      1.06795893    -0.27459578   -76.33352642     0.00000039    -0.00000148  0.10D-08  0.28D-09  6  1     3.33     0.08
   8      1.06796044    -0.27459584   -76.33352648    -0.00000006    -0.00000001  0.79D-10  0.31D-10  6  2     3.40     0.08

 Norm of t1 vector:      0.03640575      S-energy:    -0.00000012      T1 diagnostic:  0.00910144
                                                                       D1 diagnostic:  0.01818602

 Adding energy correction from Wij-K(Fij), methodcc=6  factor= 1.0
 
  CCSD correlation energy              -0.274595840850
  MP2-F12 correction (uncoupled)       -0.025032268838
  C*T doubles correction               -0.000841148047
  f12b correction                       0.004280192483


 Total CPU time for triples:      0.29 sec


 RESULTS
 =======

  Reference energy                    -76.057941549670
  F12 singles correction               -0.000989086580

 F12 singles corrections added to reference energy

  New reference energy                -76.058930636249

  F12a singlet correction              -0.023159573323
  F12a triplet correction              -0.002713843562
  F12a total correction                -0.025873416885

 F12a corrections for ansatz F12/3C(FIX) added to CCSD energy
 
  CCSD-F12a singlet pair energy        -0.209645480908
  CCSD-F12a triplet pair energy        -0.090823652968
  CCSD-F12a correlation energy         -0.300469257735

  Triples (T) contribution             -0.008899852795
  Total correlation energy             -0.309369110530

  CCSD-F12a total energy              -76.359399893984
  CCSD[T]-F12a energy                 -76.368607973108
  CCSD-T-F12a energy                  -76.368164027091
 !CCSD(T)-F12a total energy           -76.368299746780

 F12b corrections for ansatz F12/3C(FIX) added to CCSD(T)-F12a energy

  CCSD-F12b singlet pair energy        -0.205676086033
  CCSD-F12b triplet pair energy        -0.090512855360
  CCSD-F12b correlation energy         -0.296189065251

  Triples (T) contribution             -0.008899852795
  Total correlation energy             -0.305088918047

  CCSD-F12b total energy              -76.355119701501
  CCSD[T]-F12b energy                 -76.364327780625
  CCSD-T-F12b energy                  -76.363883834607
 !CCSD(T)-F12b total energy           -76.364019554296

 Timing summary (sec):

 STEP                 CPU(USER)    SYS     CPU(TOT)    WALL
 Transformation          0.06      0.01      0.07      0.09
 CCSD iterations         0.57      0.09      0.66      0.66
 Triples                 0.29      0.03      0.32      0.32
 MP2-F12                 2.77      0.05      2.82      2.81
 F12b energy             0.06      0.01      0.07      0.06

 Program statistics:

 Available memory in ccsd:                49999786
 Min. memory needed in ccsd:                145972
 Max. memory used in ccsd:                  166319
 Max. memory used in cckext:                248663 ( 9 integral passes)



 **********************************************************************************************************************************
 DATASETS  * FILE   NREC   LENGTH (MB)   RECORD NAMES
              1      20       56.67       500      610      700      900      950      970     1000      129      960     1100   
                                          VAR    BASINP    GEOM    SYMINP    ZMAT    AOBASIS   BASIS     P2S    ABASIS      S 
                                         1400     1410     1200     1210     1080     1600     1650     1300     1700     1380   
                                           T        V       H0       H01     AOSYM     SMH    MOLCAS    ERIS     OPER     JKOP   

              2       6        2.97       700     1000      520     2100     7360     7350   
                                         GEOM     BASIS   MCVARS     RHF    F12ABS    EF12   

 PROGRAMS   *        TOTAL   CCSD(T)        HF       INT
 CPU TIMES  *         4.77      3.76      0.25      0.64
 REAL TIME  *         5.57 SEC
 DISK USED  *       125.48 MB      
 **********************************************************************************************************************************

 CCSD(T)-F12/cc-pVTZ-F12 energy=    -76.364019554296

     CCSD(T)-F12        HF-SCF  
    -76.36401955    -76.05794155
 **********************************************************************************************************************************
 Molpro calculation terminated
 Variable memory released
