
 Primary working directories    : /tmp/r2518/22923.maple
 Secondary working directories  : /tmp/r2518/22923.maple
 Wavefunction directory         : /ddn/home1/r2518/wfu/
 Main file repository           : /tmp/r2518/22923.maple/

 SHA1      : d5ffa45e93fdbca01ffc919aa182cfdae0147319
 NAME      : 2015.1.35
 ARCHNAME  : linux/x86_64
 FC        : /opt/intel/composer_xe_2015.1.133/bin/intel64/ifort
 BLASLIB   : -Wl,-_start-group /opt/intel/mkl/lib/intel64/libmkl_intel_ilp64.a /opt/intel/mkl/lib/intel64/libmkl_intel_thread.a /opt/intel/mkl/lib/intel64/libmkl_core.a -Wl,-_end-group
 id        : olemiss

 Nodes     nprocs
 cn060        1

 Using customized tuning parameters: mindgm=1; mindgv=20; mindgc=4; mindgr=1; noblas=0; minvec=7
 default implementation of scratch files=df  

 memory,50,m
 nocompress;
 geomtyp=xyz
 angstrom
 geometry={
 O,0.0,0.0,-0.1157441568
 H,0.0,0.8074590974,0.5217905143
 H,0.0,-0.7574590974,0.5217905143
 }
 basis=cc-pVTZ-F12
 set,charge=0
 set,spin=0
 hf
 {CCSD(T)-F12}

 Variables initialized (889), CPU time= 0.00 sec
 Commands  initialized (702), CPU time= 0.01 sec, 572 directives.
 Default parameters read. Elapsed time= 0.19 sec

 Checking input...
 Passed
1


                                         ***  PROGRAM SYSTEM MOLPRO  ***
                                       Copyright, TTI GmbH Stuttgart, 2015
                                    Version 2015.1 linked Jul  9 2018 13:16:40


 **********************************************************************************************************************************
 LABEL *                                                                                 
  64 bit serial version                                                                  DATE: 28-Aug-19          TIME: 15:37:38  
 **********************************************************************************************************************************

 SHA1:             d5ffa45e93fdbca01ffc919aa182cfdae0147319
 **********************************************************************************************************************************

 Input parameters for SORTINT:

 COMPRESS =    0.000000
 C_FINAL  =    1.000000
 DEBUG    =   -1.000000
 C_SORT1  =    0.000000
 C_SEWARD =    0.000000
 THRESH   =    0.000000
 IO       =  molpro                                                          
 SPRI     =    0.000000
 SETTING GEOMTYP        =    XYZ
 ZUNIT=ANG
 

 Variable memory set to   50000000 words,  buffer space   230000 words

 SETTING BASIS          =    CC-PVTZ-F12
 SETTING CHARGE         =     0.00000000D+00                                  
 SETTING SPIN           =     0.00000000D+00                                  


 Recomputing integrals since basis changed


 Using spherical harmonics

 Library entry O      S cc-pVTZ-F12          selected for orbital group  1
 Library entry O      P cc-pVTZ-F12          selected for orbital group  1
 Library entry O      D cc-pVTZ-F12          selected for orbital group  1
 Library entry O      F cc-pVTZ-F12          selected for orbital group  1
 Library entry H      S cc-pVTZ-F12          selected for orbital group  2
 Library entry H      P cc-pVTZ-F12          selected for orbital group  2
 Library entry H      D cc-pVTZ-F12          selected for orbital group  2


 PROGRAM * SEWARD (Integral evaluation for generally contracted gaussian basis sets)     Author: Roland Lindh, 1990

 Geometry written to block  1 of record 700


 Point group  Cs  



 ATOMIC COORDINATES

 NR  ATOM    CHARGE       X              Y              Z

   1  O       8.00    0.000000000    0.000000000   -0.218724757
   2  H       1.00    0.000000000    1.525876551    0.986041166
   3  H       1.00    0.000000000   -1.431390245    0.986041166

 Bond lengths in Bohr (Angstrom)

 1-2  1.944160533  1-3  1.870919283
     ( 1.028805448)     ( 0.990047848)

 Bond angles

  2-1-3  101.62041643

 NUCLEAR CHARGE:                   10
 NUMBER OF PRIMITIVE AOS:         114
 NUMBER OF SYMMETRY AOS:          103
 NUMBER OF CONTRACTIONS:           89   (  61A'  +  28A"  )
 NUMBER OF CORE ORBITALS:           1   (   1A'  +   0A"  )
 NUMBER OF VALENCE ORBITALS:        6   (   5A'  +   1A"  )


 NUCLEAR REPULSION ENERGY    8.72900943

 Eigenvalues of metric

         1 0.255E-03 0.512E-03 0.591E-03 0.730E-03 0.851E-03 0.167E-02 0.217E-02 0.239E-02
         2 0.697E-03 0.107E-01 0.134E-01 0.473E-01 0.849E-01 0.902E-01 0.146E+00 0.200E+00


 Contracted 2-electron integrals neglected if value below      1.0D-11

        3628599. INTEGRALS WRITTEN OUT IN     887 BLOCKS ON RECORD 1290 OF FILE 1


 NUMBER OF SORTED TWO-ELECTRON INTEGRALS:    4174745.     BUFFER LENGTH:  32768
 NUMBER OF SEGMENTS:   1  SEGMENT LENGTH:    4174745      RECORD LENGTH: 524288

 Memory used in sort:       4.73 MW

 SORT1 READ     3628599. AND WROTE     3690323. INTEGRALS IN     11 RECORDS. CPU TIME:     0.12 SEC, REAL TIME:     0.16 SEC
 SORT2 READ     3690323. AND WROTE     4174745. INTEGRALS IN      1 RECORDS. CPU TIME:     0.10 SEC, REAL TIME:     0.14 SEC

 FILE SIZES:   FILE 1:    78.3 MBYTE,  FILE 4:    46.2 MBYTE,   TOTAL:    124.4 MBYTE

 OPERATOR DM      FOR CENTER  0  COORDINATES:    0.000000    0.000000    0.000000


 **********************************************************************************************************************************
 DATASETS  * FILE   NREC   LENGTH (MB)   RECORD NAMES
              1      19       50.78       500      610      700      900      950      970     1000      129      960     1100   
                                          VAR    BASINP    GEOM    SYMINP    ZMAT    AOBASIS   BASIS     P2S    ABASIS      S 
                                         1400     1410     1200     1210     1080     1600     1650     1300     1700   
                                           T        V       H0       H01     AOSYM     SMH    MOLCAS    ERIS     OPER   

 PROGRAMS   *        TOTAL       INT
 CPU TIMES  *         0.72      0.62
 REAL TIME  *         1.27 SEC
 DISK USED  *       124.76 MB      
 **********************************************************************************************************************************


 PROGRAM * RHF-SCF (CLOSED SHELL)       Authors: W. Meyer, H.-J. Werner


 NUMBER OF ELECTRONS:       5+    5-
 CONVERGENCE THRESHOLDS:    1.00E-05 (Density)    1.00E-07 (Energy)
 MAX. NUMBER OF ITERATIONS:       60
 INTERPOLATION TYPE:            DIIS
 INTERPOLATION STEPS:              2 (START)      1 (STEP)
 LEVEL SHIFTS:                  0.00 (CLOSED)  0.00 (OPEN) 



 Orbital guess generated from atomic densities. Full valence occupancy:    6   1

 Molecular orbital dump at record        2100.2

 Initial occupancy:   4   1

 ITERATION    DDIFF          GRAD             ENERGY        2-EL.EN.            DIPOLE MOMENTS         DIIS   ORB.
    1      0.000D+00      0.000D+00       -76.01595067     77.006041    0.00000    0.06133    1.23335    0    start
    2      0.000D+00      0.137D-01       -76.04313522     73.230932    0.00000    0.02219    0.69236    1    diag
    3      0.146D-01      0.904D-02       -76.05598502     74.938552    0.00000    0.02958    0.83013    2    diag
    4      0.533D-02      0.842D-03       -76.05620350     74.843379    0.00000    0.02667    0.82305    3    diag
    5      0.752D-03      0.253D-03       -76.05623155     74.860008    0.00000    0.02538    0.82040    4    diag
    6      0.296D-03      0.536D-04       -76.05623361     74.858557    0.00000    0.02493    0.81962    5    diag
    7      0.873D-04      0.112D-04       -76.05623371     74.858717    0.00000    0.02482    0.81942    6    diag
    8      0.200D-04      0.187D-05       -76.05623371     74.858699    0.00000    0.02480    0.81937    7    diag
    9      0.347D-05      0.249D-06       -76.05623371     74.858681    0.00000    0.02480    0.81937    0    orth

 Final occupancy:   4   1

 !RHF STATE 1.1 Energy                -76.056233710325
 Nuclear energy                         8.72900943
 One-electron energy                 -122.21458371
 Two-electron energy                   37.42934056
 Virial quotient                       -1.00318987
 !RHF STATE 1.1 Dipole moment           0.00000000     0.02480173     0.81937149
 Dipole moment /Debye                   0.00000000     0.06303557     2.08249818

 Orbital energies:

         1.1          2.1          3.1          4.1          5.1          6.1
    -20.574978    -1.329862    -0.685292    -0.580311     0.101811     0.123021

         1.2          2.2          3.2
     -0.507509     0.145769     0.479862

 HOMO      1.2    -0.507509 =     -13.8100eV
 LUMO      5.1     0.101811 =       2.7704eV
 LUMO-HOMO         0.609320 =      16.5804eV


 **********************************************************************************************************************************
 DATASETS  * FILE   NREC   LENGTH (MB)   RECORD NAMES
              1      19       50.78       500      610      700      900      950      970     1000      129      960     1100   
                                          VAR    BASINP    GEOM    SYMINP    ZMAT    AOBASIS   BASIS     P2S    ABASIS      S 
                                         1400     1410     1200     1210     1080     1600     1650     1300     1700   
                                           T        V       H0       H01     AOSYM     SMH    MOLCAS    ERIS     OPER   

              2       4        2.88       700     1000      520     2100   
                                         GEOM     BASIS   MCVARS     RHF  

 PROGRAMS   *        TOTAL        HF       INT
 CPU TIMES  *         1.02      0.30      0.62
 REAL TIME  *         1.63 SEC
 DISK USED  *       124.76 MB      
 **********************************************************************************************************************************


 PROGRAM * CCSD (Closed-shell coupled cluster)     Authors: C. Hampel, H.-J. Werner, 1991, M. Deegan, P.J. Knowles, 1992

                                  CCSD-F12 implementation by  H.-J. Werner, 2007

                   Density fitting integral evaluation by F.R. Manby, 2003,2007, G. Knizia, 2010

 Basis set AUG-CC-PVTZ/JKFIT generated.  Number of basis functions:   196 
 Basis set CC-PVTZ-F12/OPTRI generated.  Number of basis functions:   157 
 Basis set AUG-CC-PVTZ/MP2FIT generated. Number of basis functions:   198 

 Convergence thresholds:  THRVAR = 1.00D-08  THRDEN = 1.00D-06

 CCSD(T)     terms to be evaluated (factor= 1.000)


 Number of core orbitals:           1 (   1   0 )
 Number of closed-shell orbitals:   4 (   3   1 )
 Number of external orbitals:      84 (  57  27 )

 Molecular orbitals read from record     2100.2  Type=RHF/CANONICAL (state 1.1)

 MP2-F12 correlation treatment (H.-J. Werner, 2006)
 ==================================================

 Using MP2-F12 with ansatz 3C(FIX)

 Using projected zeroth-order Hamiltonian (+Z)

 FOCKRIB=T FOCKRIC=T FOCKRIP=T CABSP=T CABSA=T CABSK=T CABSF=T GBC=F EBC=F DMAT=T NOFIK=T NOPAO=1 SOLVE=-1  USEPAO=0
 EXCH_A= T EXCH_B= F EXCH_C= F EXCH_P= F
 
 Geminal basis:    OPTFULL  GEM_TYPE=SLATER  BETA=1.0  NGEM=6

 Optimizing Gaussian exponents for each gem_beta

 Geminal optimization for beta= 1.0000
 Weight function:   m=0, omega= 1.4646

 Augmented Hessian optimization of geminal fit. Trust ratio= 0.40000
 Convergence reached after   2 iterations. Final gradient= 8.41D-16, Step= 4.29D-06, Delta= 1.28D-09
 
 Alpha:                 0.19532     0.81920     2.85917     9.50073    35.69989   197.79328
 Coeff:                 0.27070     0.30552     0.18297     0.10986     0.06810     0.04224
 

 Symmetry turned off. Reference energy:        -76.056233710325

 All pairs explicitly correlated. Number of r12-pairs:           10

 Excluding core orbitals from MO domains
 
 AO(A)-basis ORBITAL           loaded. Number of functions:      89
 RI(R)-basis CC-PVTZ-F12/OPTRI loaded. Number of functions:     157
 DF-basis AUG-CC-PVTZ/JKFIT    loaded. Number of functions:     196

 Screening thresholds:   THRAO=  1.00D-10  THRMO=  1.00D-09  THRPROD=  1.00D-09
                         THRSW=  1.00D-05  THROV=  1.00D-12  THRAOF12=   1.00D-08

 CPU time for Fock operators                      1.07 sec
 
 Construction of ABS:
 Smallest eigenvalue of S          9.12E-04  (threshold= 1.00E-08)
 Ratio eigmin/eigmax               1.55E-04  (threshold= 1.00E-09)
 Smallest eigenvalue of S kept     9.12E-04  (threshold= 9.12E-04, 0 functions deleted, 157 kept)
 
 Construction of CABS:
 Smallest eigenvalue of S          2.47E-06  (threshold= 1.00E-08)
 Ratio eigmin/eigmax               2.47E-06  (threshold= 1.00E-09)
 Smallest eigenvalue of S kept     2.47E-06  (threshold= 2.47E-06, 0 functions deleted, 157 kept)
 
 CPU time for CABS singles                        0.01 sec

 CABS-singles contribution of  -0.00091938 patched into reference energy.
 New reference energy         -76.05715309
 
 AO(A)-basis ORBITAL           loaded. Number of functions:      89
 RI(R)-basis CC-PVTZ-F12/OPTRI loaded. Number of functions:     157
 DF-basis AUG-CC-PVTZ/MP2FIT   loaded. Number of functions:     198

 Screening thresholds:   THRAO=  1.00D-10  THRMO=  1.00D-09  THRPROD=  1.00D-09
                         THRSW=  1.00D-05  THROV=  1.00D-12  THRAOF12=   1.00D-08

 CPU time for 3-index integral evaluation         0.57 sec
 CPU time for first  half transformation          0.04 sec ( 4409.0 MFLOP/sec)
 CPU time for sorting                             0.01 sec
 CPU time for fitting                             0.01 sec ( 8185.8 MFLOP/sec)
 CPU time for assembly                            0.02 sec (26756.3 MFLOP/sec)
 CPU time for tranop_f12                          0.02 sec (32596.5 MFLOP/sec)
 CPU time for f12 integrals (total)               1.58 sec, Elapsed time:      1.64 sec
 CPU time for f12 matrices (total)                0.01 sec, Elapsed time:      0.01 sec

 Diagonal F12 approximation with fixed coefficients:  TSING= 0.500,  TTRIP= 0.250 (scaled by -1/beta)

 DF-MP2-F12 energy corrections:
 ==============================
 Approx.                                    Singlet             Triplet             Total
 DF-MP2-F12/3*C(DX,FIX)                -0.024987036130     -0.002974335553     -0.027961371683
 DF-MP2-F12/3*C(FIX)                   -0.023264016082     -0.002698733484     -0.025962749566
 DF-MP2-F12/3C(FIX)                    -0.023187733963     -0.002793994864     -0.025981728827

 DF-MP2-F12 correlation energies:
 ================================
 Approx.                                    Singlet             Triplet             Ecorr            Total Energy
 DF-MP2                                -0.176758466621     -0.100713756154     -0.277472222775    -76.334625313082
 DF-MP2-F12/3*C(DX,FIX)                -0.201745502751     -0.103688091707     -0.305433594458    -76.362586684765
 DF-MP2-F12/3*C(FIX)                   -0.200022482703     -0.103412489638     -0.303434972341    -76.360588062647
 DF-MP2-F12/3C(FIX)                    -0.199946200584     -0.103507751018     -0.303453951602    -76.360607041909

 SCS-DF-MP2 energies (F_SING= 1.20000  F_TRIP= 0.62222  F_PARALLEL= 0.33333):
 ============================================================================
 SCS-DF-MP2                            -0.274776497108    -76.331929587415
 SCS-DF-MP2-F12/3*C(DX,FIX)            -0.306611638141    -76.363764728448
 SCS-DF-MP2-F12/3*C(FIX)               -0.304372528352    -76.361525618658
 SCS-DF-MP2-F12/3C(FIX)                -0.304340263557    -76.361493353864

 Symmetry restored.
 Symmetry transformation completed.

 Number of N-1 electron functions:               4
 Number of N-2 electron functions:              10
 Number of singly external CSFs:               198
 Number of doubly external CSFs:             29292
 Total number of CSFs:                       29491

 Length of J-op  integral file:               8.97 MB
 Length of K-op  integral file:              13.62 MB
 Length of 3-ext integral record:             0.00 MB

 Memory could be reduced to 2.37 Mwords without degradation in triples

 Integral transformation finished. Total CPU:   0.07 sec, npass=  1  Memory used:   0.62 MW

 Reference energy:                    -76.05715309

 Adding F12 terms to K(Cij), methodcc=6,  factor= 1.0

 ITER.      SQ.NORM     CORR.ENERGY   TOTAL ENERGY   ENERGY CHANGE        DEN1      VAR(S)    VAR(P)  DIIS     TIME  TIME/IT
   1      1.06484129    -0.27724787   -76.33440096     0.00026808     0.00670051  0.86D-03  0.11D-02  1  1     3.00     0.07
   2      1.06860620    -0.27700403   -76.33415712     0.00024384    -0.00500786  0.16D-04  0.13D-03  2  2     3.08     0.07
   3      1.07002202    -0.27716037   -76.33431346    -0.00015634    -0.00091008  0.11D-04  0.89D-05  3  3     3.15     0.08
   4      1.07068976    -0.27718578   -76.33433888    -0.00002542    -0.00041703  0.52D-06  0.70D-06  4  4     3.21     0.08
   5      1.07080284    -0.27718424   -76.33433733     0.00000155    -0.00002517  0.15D-06  0.45D-07  5  5     3.28     0.08
   6      1.07083325    -0.27718277   -76.33433586     0.00000147    -0.00000518  0.14D-07  0.45D-08  6  6     3.34     0.08
   7      1.07084085    -0.27718234   -76.33433543     0.00000043    -0.00000170  0.13D-08  0.35D-09  6  1     3.41     0.08
   8      1.07084262    -0.27718240   -76.33433549    -0.00000006    -0.00000001  0.11D-09  0.42D-10  6  2     3.48     0.08

 Norm of t1 vector:      0.03862763      S-energy:    -0.00000015      T1 diagnostic:  0.00965691
                                                                       D1 diagnostic:  0.01951811

 Adding energy correction from Wij-K(Fij), methodcc=6  factor= 1.0
 
  CCSD correlation energy              -0.277182403877
  MP2-F12 correction (uncoupled)       -0.024851877370
  C*T doubles correction               -0.000840627932
  f12b correction                       0.004299142857


 Total CPU time for triples:      0.43 sec


 RESULTS
 =======

  Reference energy                    -76.056233710325
  F12 singles correction               -0.000919379981

 F12 singles corrections added to reference energy

  New reference energy                -76.057153090307

  F12a singlet correction              -0.023004867753
  F12a triplet correction              -0.002687637548
  F12a total correction                -0.025692505301

 F12a corrections for ansatz F12/3C(FIX) added to CCSD energy
 
  CCSD-F12a singlet pair energy        -0.211796374924
  CCSD-F12a triplet pair energy        -0.091078386908
  CCSD-F12a correlation energy         -0.302874909178

  Triples (T) contribution             -0.009273527487
  Total correlation energy             -0.312148436665

  CCSD-F12a total energy              -76.360027999485
  CCSD[T]-F12a energy                 -76.369640819979
  CCSD-T-F12a energy                  -76.369150754454
 !CCSD(T)-F12a total energy           -76.369301526972

 F12b corrections for ansatz F12/3C(FIX) added to CCSD(T)-F12a energy

  CCSD-F12b singlet pair energy        -0.207806529756
  CCSD-F12b triplet pair energy        -0.090769089219
  CCSD-F12b correlation energy         -0.298575766321

  Triples (T) contribution             -0.009273527487
  Total correlation energy             -0.307849293808

  CCSD-F12b total energy              -76.355728856628
  CCSD[T]-F12b energy                 -76.365341677121
  CCSD-T-F12b energy                  -76.364851611597
 !CCSD(T)-F12b total energy           -76.365002384114

 Timing summary (sec):

 STEP                 CPU(USER)    SYS     CPU(TOT)    WALL
 Transformation          0.07      0.02      0.09      0.10
 CCSD iterations         0.58      0.08      0.66      0.68
 Triples                 0.43      0.01      0.44      0.45
 MP2-F12                 2.83      0.08      2.91      2.91
 F12b energy             0.06      0.01      0.07      0.06

 Program statistics:

 Available memory in ccsd:                49999786
 Min. memory needed in ccsd:                145972
 Max. memory used in ccsd:                  166319
 Max. memory used in cckext:                248663 ( 9 integral passes)



 **********************************************************************************************************************************
 DATASETS  * FILE   NREC   LENGTH (MB)   RECORD NAMES
              1      20       56.28       500      610      700      900      950      970     1000      129      960     1100   
                                          VAR    BASINP    GEOM    SYMINP    ZMAT    AOBASIS   BASIS     P2S    ABASIS      S 
                                         1400     1410     1200     1210     1080     1600     1650     1300     1700     1380   
                                           T        V       H0       H01     AOSYM     SMH    MOLCAS    ERIS     OPER     JKOP   

              2       6        2.97       700     1000      520     2100     7360     7350   
                                         GEOM     BASIS   MCVARS     RHF    F12ABS    EF12   

 PROGRAMS   *        TOTAL   CCSD(T)        HF       INT
 CPU TIMES  *         5.03      4.01      0.30      0.62
 REAL TIME  *         5.87 SEC
 DISK USED  *       124.76 MB      
 **********************************************************************************************************************************

 CCSD(T)-F12/cc-pVTZ-F12 energy=    -76.365002384114

     CCSD(T)-F12        HF-SCF  
    -76.36500238    -76.05623371
 **********************************************************************************************************************************
 Molpro calculation terminated
 Variable memory released
