
 Primary working directories    : /tmp/r2518/22941.maple
 Secondary working directories  : /tmp/r2518/22941.maple
 Wavefunction directory         : /ddn/home1/r2518/wfu/
 Main file repository           : /tmp/r2518/22941.maple/

 SHA1      : d5ffa45e93fdbca01ffc919aa182cfdae0147319
 NAME      : 2015.1.35
 ARCHNAME  : linux/x86_64
 FC        : /opt/intel/composer_xe_2015.1.133/bin/intel64/ifort
 BLASLIB   : -Wl,-_start-group /opt/intel/mkl/lib/intel64/libmkl_intel_ilp64.a /opt/intel/mkl/lib/intel64/libmkl_intel_thread.a /opt/intel/mkl/lib/intel64/libmkl_core.a -Wl,-_end-group
 id        : olemiss

 Nodes     nprocs
 cn012        1

 Using customized tuning parameters: mindgm=1; mindgv=20; mindgc=4; mindgr=1; noblas=0; minvec=7
 default implementation of scratch files=df  

 memory,50,m
 nocompress;
 geomtyp=xyz
 angstrom
 geometry={
 O,0.0,0.0,-0.0657441568
 H,0.05,0.7574590974,0.5217905143
 H,-0.05,-0.7574590974,0.5217905143
 }
 basis=cc-pVTZ-F12
 set,charge=0
 set,spin=0
 hf
 {CCSD(T)-F12}

 Variables initialized (889), CPU time= 0.00 sec
 Commands  initialized (702), CPU time= 0.01 sec, 572 directives.
 Default parameters read. Elapsed time= 0.06 sec

 Checking input...
 Passed
1


                                         ***  PROGRAM SYSTEM MOLPRO  ***
                                       Copyright, TTI GmbH Stuttgart, 2015
                                    Version 2015.1 linked Jul  9 2018 13:16:40


 **********************************************************************************************************************************
 LABEL *                                                                                 
  64 bit serial version                                                                  DATE: 28-Aug-19          TIME: 15:37:42  
 **********************************************************************************************************************************

 SHA1:             d5ffa45e93fdbca01ffc919aa182cfdae0147319
 **********************************************************************************************************************************

 Input parameters for SORTINT:

 COMPRESS =    0.000000
 C_FINAL  =    1.000000
 DEBUG    =   -1.000000
 C_SORT1  =    0.000000
 C_SEWARD =    0.000000
 THRESH   =    0.000000
 IO       =  molpro                                                          
 SPRI     =    0.000000
 SETTING GEOMTYP        =    XYZ
 ZUNIT=ANG
 

 Variable memory set to   50000000 words,  buffer space   230000 words

 SETTING BASIS          =    CC-PVTZ-F12
 SETTING CHARGE         =     0.00000000D+00                                  
 SETTING SPIN           =     0.00000000D+00                                  


 Recomputing integrals since basis changed


 Using spherical harmonics

 Library entry O      S cc-pVTZ-F12          selected for orbital group  1
 Library entry O      P cc-pVTZ-F12          selected for orbital group  1
 Library entry O      D cc-pVTZ-F12          selected for orbital group  1
 Library entry O      F cc-pVTZ-F12          selected for orbital group  1
 Library entry H      S cc-pVTZ-F12          selected for orbital group  2
 Library entry H      P cc-pVTZ-F12          selected for orbital group  2
 Library entry H      D cc-pVTZ-F12          selected for orbital group  2


 PROGRAM * SEWARD (Integral evaluation for generally contracted gaussian basis sets)     Author: Roland Lindh, 1990

 Geometry written to block  1 of record 700


 Point group  C2  



 ATOMIC COORDINATES

 NR  ATOM    CHARGE       X              Y              Z

   1  O       8.00    0.000000000    0.000000000   -0.124238451
   2  H       1.00    0.094486306    1.431390245    0.986041166
   3  H       1.00   -0.094486306   -1.431390245    0.986041166

 Bond lengths in Bohr (Angstrom)

 1-2  1.813980850  1-3  1.813980850
     ( 0.959917327)     ( 0.959917327)

 Bond angles

  2-1-3  104.52163408

 NUCLEAR CHARGE:                   10
 NUMBER OF PRIMITIVE AOS:         114
 NUMBER OF SYMMETRY AOS:          103
 NUMBER OF CONTRACTIONS:           89   (  45A   +  44B   )
 NUMBER OF CORE ORBITALS:           1   (   1A   +   0B   )
 NUMBER OF VALENCE ORBITALS:        6   (   3A   +   3B   )


 NUCLEAR REPULSION ENERGY    9.16893197

 Eigenvalues of metric

         1 0.216E-03 0.574E-03 0.711E-03 0.159E-02 0.216E-02 0.398E-02 0.743E-02 0.847E-02
         2 0.453E-03 0.692E-03 0.796E-03 0.203E-02 0.439E-02 0.871E-02 0.100E-01 0.139E-01


 Contracted 2-electron integrals neglected if value below      1.0D-11

        3556310. INTEGRALS WRITTEN OUT IN     869 BLOCKS ON RECORD 1290 OF FILE 1


 NUMBER OF SORTED TWO-ELECTRON INTEGRALS:    4100625.     BUFFER LENGTH:  32768
 NUMBER OF SEGMENTS:   1  SEGMENT LENGTH:    4100625      RECORD LENGTH: 524288

 Memory used in sort:       4.66 MW

 SORT1 READ     3556310. AND WROTE     3628901. INTEGRALS IN     11 RECORDS. CPU TIME:     0.08 SEC, REAL TIME:     0.12 SEC
 SORT2 READ     3628901. AND WROTE     4100625. INTEGRALS IN      1 RECORDS. CPU TIME:     0.11 SEC, REAL TIME:     0.12 SEC

 FILE SIZES:   FILE 1:    77.1 MBYTE,  FILE 4:    46.2 MBYTE,   TOTAL:    123.2 MBYTE

 OPERATOR DM      FOR CENTER  0  COORDINATES:    0.000000    0.000000    0.000000


 **********************************************************************************************************************************
 DATASETS  * FILE   NREC   LENGTH (MB)   RECORD NAMES
              1      19       50.12       500      610      700      900      950      970     1000      129      960     1100   
                                          VAR    BASINP    GEOM    SYMINP    ZMAT    AOBASIS   BASIS     P2S    ABASIS      S 
                                         1400     1410     1200     1210     1080     1600     1650     1300     1700   
                                           T        V       H0       H01     AOSYM     SMH    MOLCAS    ERIS     OPER   

 PROGRAMS   *        TOTAL       INT
 CPU TIMES  *         0.54      0.45
 REAL TIME  *         1.03 SEC
 DISK USED  *       123.55 MB      
 **********************************************************************************************************************************


 PROGRAM * RHF-SCF (CLOSED SHELL)       Authors: W. Meyer, H.-J. Werner


 NUMBER OF ELECTRONS:       5+    5-
 CONVERGENCE THRESHOLDS:    1.00E-05 (Density)    1.00E-07 (Energy)
 MAX. NUMBER OF ITERATIONS:       60
 INTERPOLATION TYPE:            DIIS
 INTERPOLATION STEPS:              2 (START)      1 (STEP)
 LEVEL SHIFTS:                  0.00 (CLOSED)  0.00 (OPEN) 



 Orbital guess generated from atomic densities. Full valence occupancy:    4   3

 Molecular orbital dump at record        2100.2

 Initial occupancy:   3   2

 ITERATION    DDIFF          GRAD             ENERGY        2-EL.EN.            DIPOLE MOMENTS         DIIS   ORB.
    1      0.000D+00      0.000D+00       -76.02689728     77.641067    0.00000    0.00000    1.13660    0    start
    2      0.000D+00      0.150D-01       -76.05382650     74.052696    0.00000    0.00000    0.67620    1    diag
    3      0.158D-01      0.935D-02       -76.06485555     75.633146    0.00000    0.00000    0.79013    2    diag
    4      0.538D-02      0.884D-03       -76.06504068     75.542023    0.00000    0.00000    0.78648    3    diag
    5      0.785D-03      0.240D-03       -76.06505926     75.556014    0.00000    0.00000    0.78515    4    diag
    6      0.275D-03      0.459D-04       -76.06506037     75.555092    0.00000    0.00000    0.78487    5    diag
    7      0.776D-04      0.901D-05       -76.06506042     75.555235    0.00000    0.00000    0.78476    6    diag
    8      0.164D-04      0.179D-05       -76.06506042     75.555226    0.00000    0.00000    0.78472    7    diag
    9      0.305D-05      0.225D-06       -76.06506042     75.555213    0.00000    0.00000    0.78472    0    orth

 Final occupancy:   3   2

 !RHF STATE 1.1 Energy                -76.065060422314
 Nuclear energy                         9.16893197
 One-electron energy                 -123.01159869
 Two-electron energy                   37.77760630
 Virial quotient                       -1.00106496
 !RHF STATE 1.1 Dipole moment           0.00000000     0.00000000     0.78471747
 Dipole moment /Debye                   0.00000000     0.00000000     1.99442223

 Orbital energies:

         1.1          2.1          3.1          4.1          5.1
    -20.565361    -1.351584    -0.584494     0.101922     0.144781

         1.2          2.2          3.2          4.2
     -0.716459    -0.510296     0.120727     0.145289

 HOMO      2.2    -0.510296 =     -13.8858eV
 LUMO      4.1     0.101922 =       2.7734eV
 LUMO-HOMO         0.612217 =      16.6593eV


 **********************************************************************************************************************************
 DATASETS  * FILE   NREC   LENGTH (MB)   RECORD NAMES
              1      19       50.12       500      610      700      900      950      970     1000      129      960     1100   
                                          VAR    BASINP    GEOM    SYMINP    ZMAT    AOBASIS   BASIS     P2S    ABASIS      S 
                                         1400     1410     1200     1210     1080     1600     1650     1300     1700   
                                           T        V       H0       H01     AOSYM     SMH    MOLCAS    ERIS     OPER   

              2       4        2.87       700     1000      520     2100   
                                         GEOM     BASIS   MCVARS     RHF  

 PROGRAMS   *        TOTAL        HF       INT
 CPU TIMES  *         0.75      0.21      0.45
 REAL TIME  *         1.29 SEC
 DISK USED  *       123.55 MB      
 **********************************************************************************************************************************


 PROGRAM * CCSD (Closed-shell coupled cluster)     Authors: C. Hampel, H.-J. Werner, 1991, M. Deegan, P.J. Knowles, 1992

                                  CCSD-F12 implementation by  H.-J. Werner, 2007

                   Density fitting integral evaluation by F.R. Manby, 2003,2007, G. Knizia, 2010

 Basis set AUG-CC-PVTZ/JKFIT generated.  Number of basis functions:   196 
 Basis set CC-PVTZ-F12/OPTRI generated.  Number of basis functions:   157 
 Basis set AUG-CC-PVTZ/MP2FIT generated. Number of basis functions:   198 

 Convergence thresholds:  THRVAR = 1.00D-08  THRDEN = 1.00D-06

 CCSD(T)     terms to be evaluated (factor= 1.000)


 Number of core orbitals:           1 (   1   0 )
 Number of closed-shell orbitals:   4 (   2   2 )
 Number of external orbitals:      84 (  42  42 )

 Molecular orbitals read from record     2100.2  Type=RHF/CANONICAL (state 1.1)

 MP2-F12 correlation treatment (H.-J. Werner, 2006)
 ==================================================

 Using MP2-F12 with ansatz 3C(FIX)

 Using projected zeroth-order Hamiltonian (+Z)

 FOCKRIB=T FOCKRIC=T FOCKRIP=T CABSP=T CABSA=T CABSK=T CABSF=T GBC=F EBC=F DMAT=T NOFIK=T NOPAO=1 SOLVE=-1  USEPAO=0
 EXCH_A= T EXCH_B= F EXCH_C= F EXCH_P= F
 
 Geminal basis:    OPTFULL  GEM_TYPE=SLATER  BETA=1.0  NGEM=6

 Optimizing Gaussian exponents for each gem_beta

 Geminal optimization for beta= 1.0000
 Weight function:   m=0, omega= 1.4646

 Augmented Hessian optimization of geminal fit. Trust ratio= 0.40000
 Convergence reached after   2 iterations. Final gradient= 8.12D-16, Step= 4.39D-06, Delta= 1.28D-09
 
 Alpha:                 0.19532     0.81920     2.85917     9.50073    35.69989   197.79328
 Coeff:                 0.27070     0.30552     0.18297     0.10986     0.06810     0.04224
 

 Symmetry turned off. Reference energy:        -76.065060422314

 All pairs explicitly correlated. Number of r12-pairs:           10

 Excluding core orbitals from MO domains
 
 AO(A)-basis ORBITAL           loaded. Number of functions:      89
 RI(R)-basis CC-PVTZ-F12/OPTRI loaded. Number of functions:     157
 DF-basis AUG-CC-PVTZ/JKFIT    loaded. Number of functions:     196

 Screening thresholds:   THRAO=  1.00D-10  THRMO=  1.00D-09  THRPROD=  1.00D-09
                         THRSW=  1.00D-05  THROV=  1.00D-12  THRAOF12=   1.00D-08

 CPU time for Fock operators                      0.90 sec
 
 Construction of ABS:
 Smallest eigenvalue of S          7.87E-04  (threshold= 1.00E-08)
 Ratio eigmin/eigmax               1.31E-04  (threshold= 1.00E-09)
 Smallest eigenvalue of S kept     7.87E-04  (threshold= 7.87E-04, 0 functions deleted, 157 kept)
 
 Construction of CABS:
 Smallest eigenvalue of S          1.87E-06  (threshold= 1.00E-08)
 Ratio eigmin/eigmax               1.87E-06  (threshold= 1.00E-09)
 Smallest eigenvalue of S kept     1.87E-06  (threshold= 1.87E-06, 0 functions deleted, 157 kept)
 
 CPU time for CABS singles                        0.01 sec

 CABS-singles contribution of  -0.00100579 patched into reference energy.
 New reference energy         -76.06606621
 
 AO(A)-basis ORBITAL           loaded. Number of functions:      89
 RI(R)-basis CC-PVTZ-F12/OPTRI loaded. Number of functions:     157
 DF-basis AUG-CC-PVTZ/MP2FIT   loaded. Number of functions:     198

 Screening thresholds:   THRAO=  1.00D-10  THRMO=  1.00D-09  THRPROD=  1.00D-09
                         THRSW=  1.00D-05  THROV=  1.00D-12  THRAOF12=   1.00D-08

 CPU time for 3-index integral evaluation         0.49 sec
 CPU time for first  half transformation          0.04 sec ( 4409.0 MFLOP/sec)
 CPU time for sorting                             0.02 sec
 CPU time for tilde quantities                    0.02 sec ( 5410.2 MFLOP/sec)
 CPU time for assembly                            0.02 sec (26756.3 MFLOP/sec)
 CPU time for tranop_f12                          0.02 sec (32596.5 MFLOP/sec)
 CPU time for f12 integrals (total)               1.41 sec, Elapsed time:      1.42 sec
 CPU time for f12 matrices (total)                0.02 sec, Elapsed time:      0.02 sec

 Diagonal F12 approximation with fixed coefficients:  TSING= 0.500,  TTRIP= 0.250 (scaled by -1/beta)

 DF-MP2-F12 energy corrections:
 ==============================
 Approx.                                    Singlet             Triplet             Total
 DF-MP2-F12/3*C(DX,FIX)                -0.025255655539     -0.003020777682     -0.028276433221
 DF-MP2-F12/3*C(FIX)                   -0.023459744325     -0.002730577814     -0.026190322139
 DF-MP2-F12/3C(FIX)                    -0.023383976234     -0.002826797205     -0.026210773439

 DF-MP2-F12 correlation energies:
 ================================
 Approx.                                    Singlet             Triplet             Ecorr            Total Energy
 DF-MP2                                -0.173919591319     -0.099257405346     -0.273176996665    -76.339243206497
 DF-MP2-F12/3*C(DX,FIX)                -0.199175246857     -0.102278183029     -0.301453429886    -76.367519639718
 DF-MP2-F12/3*C(FIX)                   -0.197379335643     -0.101987983160     -0.299367318804    -76.365433528635
 DF-MP2-F12/3C(FIX)                    -0.197303567552     -0.102084202551     -0.299387770104    -76.365453979935

 SCS-DF-MP2 energies (F_SING= 1.20000  F_TRIP= 0.62222  F_PARALLEL= 0.33333):
 ============================================================================
 SCS-DF-MP2                            -0.270463672909    -76.336529882741
 SCS-DF-MP2-F12/3*C(DX,FIX)            -0.302650054558    -76.368716264390
 SCS-DF-MP2-F12/3*C(FIX)               -0.300314392294    -76.366380602126
 SCS-DF-MP2-F12/3C(FIX)                -0.300283340428    -76.366349550260

 Symmetry restored.
 Symmetry transformation completed.

 Number of N-1 electron functions:               4
 Number of N-2 electron functions:              10
 Number of singly external CSFs:               168
 Number of doubly external CSFs:             28392
 Total number of CSFs:                       28561

 Length of J-op  integral file:               8.96 MB
 Length of K-op  integral file:              13.53 MB
 Length of 3-ext integral record:             0.00 MB

 Memory could be reduced to 2.30 Mwords without degradation in triples

 Integral transformation finished. Total CPU:   0.05 sec, npass=  1  Memory used:   0.76 MW

 Reference energy:                    -76.06606621

 Adding F12 terms to K(Cij), methodcc=6,  factor= 1.0

 ITER.      SQ.NORM     CORR.ENERGY   TOTAL ENERGY   ENERGY CHANGE        DEN1      VAR(S)    VAR(P)  DIIS     TIME  TIME/IT
   1      1.06151880    -0.27350503   -76.33957124    -0.00028548     0.00549589  0.72D-03  0.96D-03  1  1     2.61     0.06
   2      1.06472948    -0.27323876   -76.33930497     0.00026627    -0.00451645  0.13D-04  0.10D-03  2  2     2.67     0.06
   3      1.06584949    -0.27336327   -76.33942948    -0.00012451    -0.00077767  0.84D-05  0.65D-05  3  3     2.72     0.06
   4      1.06635755    -0.27338428   -76.33945049    -0.00002101    -0.00033937  0.41D-06  0.51D-06  4  4     2.78     0.06
   5      1.06644389    -0.27338273   -76.33944894     0.00000155    -0.00001883  0.12D-06  0.31D-07  5  5     2.83     0.06
   6      1.06646720    -0.27338148   -76.33944769     0.00000126    -0.00000387  0.10D-07  0.31D-08  6  6     2.89     0.06
   7      1.06647320    -0.27338111   -76.33944732     0.00000037    -0.00000137  0.85D-09  0.24D-09  6  1     2.95     0.06
   8      1.06647458    -0.27338117   -76.33944738    -0.00000006    -0.00000001  0.65D-10  0.25D-10  6  2     3.00     0.06

 Norm of t1 vector:      0.03501016      S-energy:    -0.00000011      T1 diagnostic:  0.00875254
                                                                       D1 diagnostic:  0.01750065

 Adding energy correction from Wij-K(Fij), methodcc=6  factor= 1.0
 
  CCSD correlation energy              -0.273381166686
  MP2-F12 correction (uncoupled)       -0.025088002700
  C*T doubles correction               -0.000842418777
  f12b correction                       0.004273772476


 Total CPU time for triples:      0.24 sec


 RESULTS
 =======

  Reference energy                    -76.065060422314
  F12 singles correction               -0.001005787518

 F12 singles corrections added to reference energy

  New reference energy                -76.066066209832

  F12a singlet correction              -0.023209718030
  F12a triplet correction              -0.002720703446
  F12a total correction                -0.025930421477

 F12a corrections for ansatz F12/3C(FIX) added to CCSD energy
 
  CCSD-F12a singlet pair energy        -0.208567380787
  CCSD-F12a triplet pair energy        -0.090744102108
  CCSD-F12a correlation energy         -0.299311588163

  Triples (T) contribution             -0.008731473612
  Total correlation energy             -0.308043061774

  CCSD-F12a total energy              -76.365377797994
  CCSD[T]-F12a energy                 -76.374401352061
  CCSD-T-F12a energy                  -76.373982075265
 !CCSD(T)-F12a total energy           -76.374109271606

 F12b corrections for ansatz F12/3C(FIX) added to CCSD(T)-F12a energy

  CCSD-F12b singlet pair energy        -0.204605116588
  CCSD-F12b triplet pair energy        -0.090432593830
  CCSD-F12b correlation energy         -0.295037815686

  Triples (T) contribution             -0.008731473612
  Total correlation energy             -0.303769289298

  CCSD-F12b total energy              -76.361104025518
  CCSD[T]-F12b energy                 -76.370127579585
  CCSD-T-F12b energy                  -76.369708302788
 !CCSD(T)-F12b total energy           -76.369835499130

 Timing summary (sec):

 STEP                 CPU(USER)    SYS     CPU(TOT)    WALL
 Transformation          0.05      0.02      0.07      0.12
 CCSD iterations         0.48      0.05      0.53      0.54
 Triples                 0.24      0.01      0.25      0.25
 MP2-F12                 2.47      0.04      2.51      2.51
 F12b energy             0.04      0.01      0.05      0.05

 Program statistics:

 Available memory in ccsd:                49999786
 Min. memory needed in ccsd:                134904
 Max. memory used in ccsd:                  154510
 Max. memory used in cckext:                223944 ( 9 integral passes)



 **********************************************************************************************************************************
 DATASETS  * FILE   NREC   LENGTH (MB)   RECORD NAMES
              1      20       55.47       500      610      700      900      950      970     1000      129      960     1100   
                                          VAR    BASINP    GEOM    SYMINP    ZMAT    AOBASIS   BASIS     P2S    ABASIS      S 
                                         1400     1410     1200     1210     1080     1600     1650     1300     1700     1380   
                                           T        V       H0       H01     AOSYM     SMH    MOLCAS    ERIS     OPER     JKOP   

              2       6        2.95       700     1000      520     2100     7360     7350   
                                         GEOM     BASIS   MCVARS     RHF    F12ABS    EF12   

 PROGRAMS   *        TOTAL   CCSD(T)        HF       INT
 CPU TIMES  *         4.06      3.30      0.21      0.45
 REAL TIME  *         4.80 SEC
 DISK USED  *       123.55 MB      
 **********************************************************************************************************************************

 CCSD(T)-F12/cc-pVTZ-F12 energy=    -76.369835499130

     CCSD(T)-F12        HF-SCF  
    -76.36983550    -76.06506042
 **********************************************************************************************************************************
 Molpro calculation terminated
 Variable memory released
