
 Primary working directories    : /tmp/r2518/22868.maple
 Secondary working directories  : /tmp/r2518/22868.maple
 Wavefunction directory         : /ddn/home1/r2518/wfu/
 Main file repository           : /tmp/r2518/22868.maple/

 SHA1      : d5ffa45e93fdbca01ffc919aa182cfdae0147319
 NAME      : 2015.1.35
 ARCHNAME  : linux/x86_64
 FC        : /opt/intel/composer_xe_2015.1.133/bin/intel64/ifort
 BLASLIB   : -Wl,-_start-group /opt/intel/mkl/lib/intel64/libmkl_intel_ilp64.a /opt/intel/mkl/lib/intel64/libmkl_intel_thread.a /opt/intel/mkl/lib/intel64/libmkl_core.a -Wl,-_end-group
 id        : olemiss

 Nodes     nprocs
 cn083        1

 Using customized tuning parameters: mindgm=1; mindgv=20; mindgc=4; mindgr=1; noblas=0; minvec=7
 default implementation of scratch files=df  

 memory,50,m
 nocompress;
 geomtyp=xyz
 angstrom
 geometry={
 O,0.0,-0.05,-0.0657441568
 H,0.0,0.7574590974,0.5217905143
 H,-0.05,-0.7574590974,0.5217905143
 }
 basis=cc-pVTZ-F12
 set,charge=0
 set,spin=0
 hf
 {CCSD(T)-F12}

 Variables initialized (889), CPU time= 0.01 sec
 Commands  initialized (702), CPU time= 0.01 sec, 572 directives.
 Default parameters read. Elapsed time= 0.05 sec

 Checking input...
 Passed
1


                                         ***  PROGRAM SYSTEM MOLPRO  ***
                                       Copyright, TTI GmbH Stuttgart, 2015
                                    Version 2015.1 linked Jul  9 2018 13:16:40


 **********************************************************************************************************************************
 LABEL *                                                                                 
  64 bit serial version                                                                  DATE: 28-Aug-19          TIME: 15:37:33  
 **********************************************************************************************************************************

 SHA1:             d5ffa45e93fdbca01ffc919aa182cfdae0147319
 **********************************************************************************************************************************

 Input parameters for SORTINT:

 COMPRESS =    0.000000
 C_FINAL  =    1.000000
 DEBUG    =   -1.000000
 C_SORT1  =    0.000000
 C_SEWARD =    0.000000
 THRESH   =    0.000000
 IO       =  molpro                                                          
 SPRI     =    0.000000
 SETTING GEOMTYP        =    XYZ
 ZUNIT=ANG
 

 Variable memory set to   50000000 words,  buffer space   230000 words

 SETTING BASIS          =    CC-PVTZ-F12
 SETTING CHARGE         =     0.00000000D+00                                  
 SETTING SPIN           =     0.00000000D+00                                  


 Recomputing integrals since basis changed


 Using spherical harmonics

 Library entry O      S cc-pVTZ-F12          selected for orbital group  1
 Library entry O      P cc-pVTZ-F12          selected for orbital group  1
 Library entry O      D cc-pVTZ-F12          selected for orbital group  1
 Library entry O      F cc-pVTZ-F12          selected for orbital group  1
 Library entry H      S cc-pVTZ-F12          selected for orbital group  2
 Library entry H      P cc-pVTZ-F12          selected for orbital group  2
 Library entry H      D cc-pVTZ-F12          selected for orbital group  2


 PROGRAM * SEWARD (Integral evaluation for generally contracted gaussian basis sets)     Author: Roland Lindh, 1990

 Geometry written to block  1 of record 700


 Point group  C1  



 ATOMIC COORDINATES

 NR  ATOM    CHARGE       X              Y              Z

   1  O       8.00    0.000000000   -0.094486306   -0.124238451
   2  H       1.00    0.000000000    1.431390245    0.986041166
   3  H       1.00   -0.094486306   -1.431390245    0.986041166

 Bond lengths in Bohr (Angstrom)

 1-2  1.887066527  1-3  1.740390942
     ( 0.998592601)     ( 0.920975225)

 Bond angles

  2-1-3  104.22848534

 NUCLEAR CHARGE:                   10
 NUMBER OF PRIMITIVE AOS:         114
 NUMBER OF SYMMETRY AOS:          103
 NUMBER OF CONTRACTIONS:           89   (  89A   )
 NUMBER OF CORE ORBITALS:           1   (   1A   )
 NUMBER OF VALENCE ORBITALS:        6   (   6A   )


 NUCLEAR REPULSION ENERGY    9.18517321


 Eigenvalues of metric

         1 0.210E-03 0.459E-03 0.574E-03 0.691E-03 0.710E-03 0.797E-03 0.158E-02 0.200E-02


 Contracted 2-electron integrals neglected if value below      1.0D-11

        5898151. INTEGRALS WRITTEN OUT IN    1441 BLOCKS ON RECORD 1290 OF FILE 1


 NUMBER OF SORTED TWO-ELECTRON INTEGRALS:    8022015.     BUFFER LENGTH:  32768
 NUMBER OF SEGMENTS:   1  SEGMENT LENGTH:    8022015      RECORD LENGTH: 524288

 Memory used in sort:       8.58 MW

 SORT1 READ     5898151. AND WROTE     5898151. INTEGRALS IN     17 RECORDS. CPU TIME:     0.10 SEC, REAL TIME:     0.20 SEC
 SORT2 READ     5898151. AND WROTE     8022015. INTEGRALS IN      1 RECORDS. CPU TIME:     0.11 SEC, REAL TIME:     0.16 SEC

 FILE SIZES:   FILE 1:   114.6 MBYTE,  FILE 4:    71.3 MBYTE,   TOTAL:    186.0 MBYTE

 OPERATOR DM      FOR CENTER  0  COORDINATES:    0.000000    0.000000    0.000000


 **********************************************************************************************************************************
 DATASETS  * FILE   NREC   LENGTH (MB)   RECORD NAMES
              1      19       70.15       500      610      700      900      950      970     1000      129      960     1100   
                                          VAR    BASINP    GEOM    SYMINP    ZMAT    AOBASIS   BASIS     P2S    ABASIS      S 
                                         1400     1410     1200     1210     1080     1600     1650     1300     1700   
                                           T        V       H0       H01     AOSYM     SMH    MOLCAS    ERIS     OPER   

 PROGRAMS   *        TOTAL       INT
 CPU TIMES  *         0.70      0.61
 REAL TIME  *         2.35 SEC
 DISK USED  *       186.30 MB      
 **********************************************************************************************************************************


 PROGRAM * RHF-SCF (CLOSED SHELL)       Authors: W. Meyer, H.-J. Werner


 NUMBER OF ELECTRONS:       5+    5-    SPACE SYMMETRY=1    SPIN SYMMETRY: Singlet 
 CONVERGENCE THRESHOLDS:    1.00E-05 (Density)    1.00E-07 (Energy)
 MAX. NUMBER OF ITERATIONS:       60
 INTERPOLATION TYPE:            DIIS
 INTERPOLATION STEPS:              2 (START)      1 (STEP)
 LEVEL SHIFTS:                  0.00 (CLOSED)  0.00 (OPEN) 



 Orbital guess generated from atomic densities. Full valence occupancy:    7

 Molecular orbital dump at record        2100.2

 Initial occupancy:   5

 ITERATION    DDIFF          GRAD             ENERGY        2-EL.EN.            DIPOLE MOMENTS         DIIS   ORB.
    1      0.000D+00      0.000D+00       -76.02339194     77.681347   -0.04759    0.12171    1.13772    0    start
    2      0.000D+00      0.107D-01       -76.05063131     74.059625   -0.02909    0.04747    0.67586    1    diag
    3      0.112D-01      0.667D-02       -76.06185664     75.651530   -0.03384    0.06084    0.79037    2    diag
    4      0.385D-02      0.629D-03       -76.06205005     75.561130   -0.03383    0.05594    0.78663    3    diag
    5      0.563D-03      0.175D-03       -76.06207039     75.575193   -0.03383    0.05396    0.78519    4    diag
    6      0.199D-03      0.347D-04       -76.06207170     75.574192   -0.03384    0.05333    0.78485    5    diag
    7      0.569D-04      0.710D-05       -76.06207176     75.574330   -0.03384    0.05316    0.78473    6    diag
    8      0.124D-04      0.136D-05       -76.06207176     75.574318   -0.03384    0.05314    0.78468    7    diag
    9      0.231D-05      0.180D-06       -76.06207176     75.574305   -0.03384    0.05314    0.78468    0    orth

 Final occupancy:   5

 !RHF STATE 1.1 Energy                -76.062071764172
 Nuclear energy                         9.18517321
 One-electron energy                 -123.03439758
 Two-electron energy                   37.78715261
 Virial quotient                       -1.00087335
 !RHF STATE 1.1 Dipole moment          -0.03383885     0.05313681     0.78467938
 Dipole moment /Debye                  -0.08600413     0.13505146     1.99432541

 Orbital energies:

         1.1          2.1          3.1          4.1          5.1          6.1          7.1
    -20.565140    -1.353334    -0.716479    -0.584571    -0.510522     0.101362     0.120841

 HOMO      5.1    -0.510522 =     -13.8920eV
 LUMO      6.1     0.101362 =       2.7582eV
 LUMO-HOMO         0.611883 =      16.6502eV


 **********************************************************************************************************************************
 DATASETS  * FILE   NREC   LENGTH (MB)   RECORD NAMES
              1      19       70.15       500      610      700      900      950      970     1000      129      960     1100   
                                          VAR    BASINP    GEOM    SYMINP    ZMAT    AOBASIS   BASIS     P2S    ABASIS      S 
                                         1400     1410     1200     1210     1080     1600     1650     1300     1700   
                                           T        V       H0       H01     AOSYM     SMH    MOLCAS    ERIS     OPER   

              2       4        2.95       700     1000      520     2100   
                                         GEOM     BASIS   MCVARS     RHF  

 PROGRAMS   *        TOTAL        HF       INT
 CPU TIMES  *         1.30      0.60      0.61
 REAL TIME  *         3.45 SEC
 DISK USED  *       186.30 MB      
 **********************************************************************************************************************************


 PROGRAM * CCSD (Closed-shell coupled cluster)     Authors: C. Hampel, H.-J. Werner, 1991, M. Deegan, P.J. Knowles, 1992

                                  CCSD-F12 implementation by  H.-J. Werner, 2007

                   Density fitting integral evaluation by F.R. Manby, 2003,2007, G. Knizia, 2010

 Basis set AUG-CC-PVTZ/JKFIT generated.  Number of basis functions:   196 
 Basis set CC-PVTZ-F12/OPTRI generated.  Number of basis functions:   157 
 Basis set AUG-CC-PVTZ/MP2FIT generated. Number of basis functions:   198 

 Convergence thresholds:  THRVAR = 1.00D-08  THRDEN = 1.00D-06

 CCSD(T)     terms to be evaluated (factor= 1.000)


 Number of core orbitals:           1 (   1 )
 Number of closed-shell orbitals:   4 (   4 )
 Number of external orbitals:      84 (  84 )

 Molecular orbitals read from record     2100.2  Type=RHF/CANONICAL (state 1.1)

 MP2-F12 correlation treatment (H.-J. Werner, 2006)
 ==================================================

 Using MP2-F12 with ansatz 3C(FIX)

 Using projected zeroth-order Hamiltonian (+Z)

 FOCKRIB=T FOCKRIC=T FOCKRIP=T CABSP=T CABSA=T CABSK=T CABSF=T GBC=F EBC=F DMAT=T NOFIK=T NOPAO=1 SOLVE=-1  USEPAO=0
 EXCH_A= T EXCH_B= F EXCH_C= F EXCH_P= F
 
 Geminal basis:    OPTFULL  GEM_TYPE=SLATER  BETA=1.0  NGEM=6

 Optimizing Gaussian exponents for each gem_beta

 Geminal optimization for beta= 1.0000
 Weight function:   m=0, omega= 1.4646

 Augmented Hessian optimization of geminal fit. Trust ratio= 0.40000
 Convergence reached after   2 iterations. Final gradient= 8.41D-16, Step= 4.29D-06, Delta= 1.28D-09
 
 Alpha:                 0.19532     0.81920     2.85917     9.50073    35.69989   197.79328
 Coeff:                 0.27070     0.30552     0.18297     0.10986     0.06810     0.04224
 

 All pairs explicitly correlated. Number of r12-pairs:           10

 Excluding core orbitals from MO domains
 
 AO(A)-basis ORBITAL           loaded. Number of functions:      89
 RI(R)-basis CC-PVTZ-F12/OPTRI loaded. Number of functions:     157
 DF-basis AUG-CC-PVTZ/JKFIT    loaded. Number of functions:     196

 Screening thresholds:   THRAO=  1.00D-10  THRMO=  1.00D-09  THRPROD=  1.00D-09
                         THRSW=  1.00D-05  THROV=  1.00D-12  THRAOF12=   1.00D-08

 CPU time for Fock operators                      0.39 sec
 
 Construction of ABS:
 Smallest eigenvalue of S          7.19E-04  (threshold= 1.00E-08)
 Ratio eigmin/eigmax               1.20E-04  (threshold= 1.00E-09)
 Smallest eigenvalue of S kept     7.19E-04  (threshold= 7.19E-04, 0 functions deleted, 157 kept)
 
 Construction of CABS:
 Smallest eigenvalue of S          1.78E-06  (threshold= 1.00E-08)
 Ratio eigmin/eigmax               1.78E-06  (threshold= 1.00E-09)
 Smallest eigenvalue of S kept     1.78E-06  (threshold= 1.78E-06, 0 functions deleted, 157 kept)
 
 CPU time for CABS singles                        0.01 sec

 CABS-singles contribution of  -0.00101109 patched into reference energy.
 New reference energy         -76.06308286
 
 AO(A)-basis ORBITAL           loaded. Number of functions:      89
 RI(R)-basis CC-PVTZ-F12/OPTRI loaded. Number of functions:     157
 DF-basis AUG-CC-PVTZ/MP2FIT   loaded. Number of functions:     198

 Screening thresholds:   THRAO=  1.00D-10  THRMO=  1.00D-09  THRPROD=  1.00D-09
                         THRSW=  1.00D-05  THROV=  1.00D-12  THRAOF12=   1.00D-08

 CPU time for 3-index integral evaluation         0.45 sec
 CPU time for first  half transformation          0.05 sec ( 3527.2 MFLOP/sec)
 CPU time for fitting                             0.01 sec ( 8185.8 MFLOP/sec)
 CPU time for assembly                            0.02 sec (26756.3 MFLOP/sec)
 CPU time for tranop_f12                          0.02 sec (32596.5 MFLOP/sec)
 CPU time for f12 integrals (total)               0.60 sec, Elapsed time:      1.21 sec
 CPU time for f12 matrices (total)                0.02 sec, Elapsed time:      0.01 sec

 Diagonal F12 approximation with fixed coefficients:  TSING= 0.500,  TTRIP= 0.250 (scaled by -1/beta)

 DF-MP2-F12 energy corrections:
 ==============================
 Approx.                                    Singlet             Triplet             Total
 DF-MP2-F12/3*C(DX,FIX)                -0.025269265086     -0.003023148132     -0.028292413218
 DF-MP2-F12/3*C(FIX)                   -0.023469480538     -0.002732308196     -0.026201788734
 DF-MP2-F12/3C(FIX)                    -0.023392043913     -0.002828352736     -0.026220396649

 DF-MP2-F12 correlation energies:
 ================================
 Approx.                                    Singlet             Triplet             Ecorr            Total Energy
 DF-MP2                                -0.173936952655     -0.099230071286     -0.273167023941    -76.336249882867
 DF-MP2-F12/3*C(DX,FIX)                -0.199206217742     -0.102253219418     -0.301459437159    -76.364542296085
 DF-MP2-F12/3*C(FIX)                   -0.197406433193     -0.101962379482     -0.299368812675    -76.362451671601
 DF-MP2-F12/3C(FIX)                    -0.197328996568     -0.102058424022     -0.299387420590    -76.362470279516

 SCS-DF-MP2 energies (F_SING= 1.20000  F_TRIP= 0.62222  F_PARALLEL= 0.33333):
 ============================================================================
 SCS-DF-MP2                            -0.270467498653    -76.333550357579
 SCS-DF-MP2-F12/3*C(DX,FIX)            -0.302671686705    -76.365754545631
 SCS-DF-MP2-F12/3*C(FIX)               -0.300330978176    -76.363413837102
 SCS-DF-MP2-F12/3C(FIX)                -0.300297815273    -76.363380674199
 Symmetry transformation completed.

 Number of N-1 electron functions:               4
 Number of N-2 electron functions:              10
 Number of singly external CSFs:               336
 Number of doubly external CSFs:             56616
 Total number of CSFs:                       56953

 Length of J-op  integral file:               9.11 MB
 Length of K-op  integral file:              14.70 MB
 Length of 3-ext integral record:             0.00 MB

 Memory could be reduced to 4.35 Mwords without degradation in triples

 Integral transformation finished. Total CPU:   0.14 sec, npass=  1  Memory used:   2.09 MW

 Reference energy:                    -76.06308286

 Adding F12 terms to K(Cij), methodcc=6,  factor= 1.0

 ITER.      SQ.NORM     CORR.ENERGY   TOTAL ENERGY   ENERGY CHANGE        DEN1      VAR(S)    VAR(P)  DIIS     TIME  TIME/IT
   1      1.06157115    -0.27352081   -76.33660366    -0.00031113     0.00548284  0.72D-03  0.96D-03  1  1     1.36     0.14
   2      1.06480420    -0.27325911   -76.33634197     0.00026169    -0.00452583  0.13D-04  0.10D-03  2  2     1.48     0.14
   3      1.06593976    -0.27338495   -76.33646781    -0.00012584    -0.00078315  0.85D-05  0.66D-05  3  3     1.59     0.14
   4      1.06645640    -0.27340604   -76.33648890    -0.00002109    -0.00034276  0.41D-06  0.52D-06  4  4     1.72     0.14
   5      1.06654404    -0.27340445   -76.33648730     0.00000160    -0.00001910  0.12D-06  0.31D-07  5  5     1.83     0.14
   6      1.06656746    -0.27340318   -76.33648604     0.00000126    -0.00000387  0.10D-07  0.31D-08  6  6     1.93     0.13
   7      1.06657349    -0.27340282   -76.33648567     0.00000037    -0.00000138  0.87D-09  0.24D-09  6  1     2.05     0.13
   8      1.06657487    -0.27340287   -76.33648573    -0.00000006    -0.00000001  0.67D-10  0.26D-10  6  2     2.16     0.13

 Norm of t1 vector:      0.03516154      S-energy:    -0.00000011      T1 diagnostic:  0.00879038
                                                                       D1 diagnostic:  0.01752822

 Adding energy correction from Wij-K(Fij), methodcc=6  factor= 1.0
 
  CCSD correlation energy              -0.273402872761
  MP2-F12 correction (uncoupled)       -0.025099562712
  C*T doubles correction               -0.000841851456
  f12b correction                       0.004273506206


 Total CPU time for triples:      0.53 sec


 RESULTS
 =======

  Reference energy                    -76.062071764172
  F12 singles correction               -0.001011094754

 F12 singles corrections added to reference energy

  New reference energy                -76.063082858926

  F12a singlet correction              -0.023219135209
  F12a triplet correction              -0.002722278959
  F12a total correction                -0.025941414168

 F12a corrections for ansatz F12/3C(FIX) added to CCSD energy
 
  CCSD-F12a singlet pair energy        -0.208623174274
  CCSD-F12a triplet pair energy        -0.090721002868
  CCSD-F12a correlation energy         -0.299344286929

  Triples (T) contribution             -0.008733710468
  Total correlation energy             -0.308077997396

  CCSD-F12a total energy              -76.362427145855
  CCSD[T]-F12a energy                 -76.371454008499
  CCSD-T-F12a energy                  -76.371032922265
 !CCSD(T)-F12a total energy           -76.371160856322

 F12b corrections for ansatz F12/3C(FIX) added to CCSD(T)-F12a energy

  CCSD-F12b singlet pair energy        -0.204661151812
  CCSD-F12b triplet pair energy        -0.090409519123
  CCSD-F12b correlation energy         -0.295070780722

  Triples (T) contribution             -0.008733710468
  Total correlation energy             -0.303804491190

  CCSD-F12b total energy              -76.358153639648
  CCSD[T]-F12b energy                 -76.367180502293
  CCSD-T-F12b energy                  -76.366759416058
 !CCSD(T)-F12b total energy           -76.366887350116

 Timing summary (sec):

 STEP                 CPU(USER)    SYS     CPU(TOT)    WALL
 Transformation          0.15      0.04      0.19      0.33
 CCSD iterations         0.96      0.14      1.10      2.61
 Triples                 0.53      0.02      0.55      0.55
 MP2-F12                 1.05      0.06      1.11      2.85
 F12b energy             0.09      0.01      0.10      0.10

 Program statistics:

 Available memory in ccsd:                49999786
 Min. memory needed in ccsd:                269472
 Max. memory used in ccsd:                  308684
 Max. memory used in cckext:                227914 ( 9 integral passes)



 **********************************************************************************************************************************
 DATASETS  * FILE   NREC   LENGTH (MB)   RECORD NAMES
              1      20       80.83       500      610      700      900      950      970     1000      129      960     1100   
                                          VAR    BASINP    GEOM    SYMINP    ZMAT    AOBASIS   BASIS     P2S    ABASIS      S 
                                         1400     1410     1200     1210     1080     1600     1650     1300     1700     1380   
                                           T        V       H0       H01     AOSYM     SMH    MOLCAS    ERIS     OPER     JKOP   

              2       6        3.11       700     1000      520     2100     7360     7350   
                                         GEOM     BASIS   MCVARS     RHF    F12ABS    EF12   

 PROGRAMS   *        TOTAL   CCSD(T)        HF       INT
 CPU TIMES  *         4.14      2.82      0.60      0.61
 REAL TIME  *        12.59 SEC
 DISK USED  *       186.30 MB      
 **********************************************************************************************************************************

 CCSD(T)-F12/cc-pVTZ-F12 energy=    -76.366887350116

     CCSD(T)-F12        HF-SCF  
    -76.36688735    -76.06207176
 **********************************************************************************************************************************
 Molpro calculation terminated
 Variable memory released
