
 Primary working directories    : /tmp/r2518/22846.maple
 Secondary working directories  : /tmp/r2518/22846.maple
 Wavefunction directory         : /ddn/home1/r2518/wfu/
 Main file repository           : /tmp/r2518/22846.maple/

 SHA1      : d5ffa45e93fdbca01ffc919aa182cfdae0147319
 NAME      : 2015.1.35
 ARCHNAME  : linux/x86_64
 FC        : /opt/intel/composer_xe_2015.1.133/bin/intel64/ifort
 BLASLIB   : -Wl,-_start-group /opt/intel/mkl/lib/intel64/libmkl_intel_ilp64.a /opt/intel/mkl/lib/intel64/libmkl_intel_thread.a /opt/intel/mkl/lib/intel64/libmkl_core.a -Wl,-_end-group
 id        : olemiss

 Nodes     nprocs
 cn054        1

 Using customized tuning parameters: mindgm=1; mindgv=20; mindgc=4; mindgr=1; noblas=0; minvec=7
 default implementation of scratch files=df  

 memory,50,m
 nocompress;
 geomtyp=xyz
 angstrom
 geometry={
 O,0.0,0.0,-0.0657441568
 H,0.0,0.8074590974,0.5717905143
 H,0.0,-0.7574590974,0.5217905143
 }
 basis=cc-pVTZ-F12
 set,charge=0
 set,spin=0
 hf
 {CCSD(T)-F12}

 Variables initialized (889), CPU time= 0.00 sec
 Commands  initialized (702), CPU time= 0.01 sec, 572 directives.
 Default parameters read. Elapsed time= 0.10 sec

 Checking input...
 Passed
1


                                         ***  PROGRAM SYSTEM MOLPRO  ***
                                       Copyright, TTI GmbH Stuttgart, 2015
                                    Version 2015.1 linked Jul  9 2018 13:16:40


 **********************************************************************************************************************************
 LABEL *                                                                                 
  64 bit serial version                                                                  DATE: 28-Aug-19          TIME: 15:37:26  
 **********************************************************************************************************************************

 SHA1:             d5ffa45e93fdbca01ffc919aa182cfdae0147319
 **********************************************************************************************************************************

 Input parameters for SORTINT:

 COMPRESS =    0.000000
 C_FINAL  =    1.000000
 DEBUG    =   -1.000000
 C_SORT1  =    0.000000
 C_SEWARD =    0.000000
 THRESH   =    0.000000
 IO       =  molpro                                                          
 SPRI     =    0.000000
 SETTING GEOMTYP        =    XYZ
 ZUNIT=ANG
 

 Variable memory set to   50000000 words,  buffer space   230000 words

 SETTING BASIS          =    CC-PVTZ-F12
 SETTING CHARGE         =     0.00000000D+00                                  
 SETTING SPIN           =     0.00000000D+00                                  


 Recomputing integrals since basis changed


 Using spherical harmonics

 Library entry O      S cc-pVTZ-F12          selected for orbital group  1
 Library entry O      P cc-pVTZ-F12          selected for orbital group  1
 Library entry O      D cc-pVTZ-F12          selected for orbital group  1
 Library entry O      F cc-pVTZ-F12          selected for orbital group  1
 Library entry H      S cc-pVTZ-F12          selected for orbital group  2
 Library entry H      P cc-pVTZ-F12          selected for orbital group  2
 Library entry H      D cc-pVTZ-F12          selected for orbital group  2


 PROGRAM * SEWARD (Integral evaluation for generally contracted gaussian basis sets)     Author: Roland Lindh, 1990

 Geometry written to block  1 of record 700


 Point group  Cs  



 ATOMIC COORDINATES

 NR  ATOM    CHARGE       X              Y              Z

   1  O       8.00    0.000000000    0.000000000   -0.124238451
   2  H       1.00    0.000000000    1.525876551    1.080527473
   3  H       1.00    0.000000000   -1.431390245    0.986041166

 Bond lengths in Bohr (Angstrom)

 1-2  1.944160533  1-3  1.811518385
     ( 1.028805448)     ( 0.958614247)

 Bond angles

  2-1-3  103.90742131

 NUCLEAR CHARGE:                   10
 NUMBER OF PRIMITIVE AOS:         114
 NUMBER OF SYMMETRY AOS:          103
 NUMBER OF CONTRACTIONS:           89   (  61A'  +  28A"  )
 NUMBER OF CORE ORBITALS:           1   (   1A'  +   0A"  )
 NUMBER OF VALENCE ORBITALS:        6   (   5A'  +   1A"  )


 NUCLEAR REPULSION ENERGY    8.86904897

 Eigenvalues of metric

         1 0.238E-03 0.494E-03 0.586E-03 0.722E-03 0.833E-03 0.164E-02 0.211E-02 0.232E-02
         2 0.695E-03 0.907E-02 0.133E-01 0.458E-01 0.844E-01 0.905E-01 0.138E+00 0.196E+00


 Contracted 2-electron integrals neglected if value below      1.0D-11

        3676678. INTEGRALS WRITTEN OUT IN     898 BLOCKS ON RECORD 1290 OF FILE 1


 NUMBER OF SORTED TWO-ELECTRON INTEGRALS:    4174745.     BUFFER LENGTH:  32768
 NUMBER OF SEGMENTS:   1  SEGMENT LENGTH:    4174745      RECORD LENGTH: 524288

 Memory used in sort:       4.73 MW

 SORT1 READ     3676678. AND WROTE     3739794. INTEGRALS IN     11 RECORDS. CPU TIME:     0.12 SEC, REAL TIME:     0.16 SEC
 SORT2 READ     3739794. AND WROTE     4174745. INTEGRALS IN      1 RECORDS. CPU TIME:     0.10 SEC, REAL TIME:     0.15 SEC

 FILE SIZES:   FILE 1:    79.0 MBYTE,  FILE 4:    46.2 MBYTE,   TOTAL:    125.2 MBYTE

 OPERATOR DM      FOR CENTER  0  COORDINATES:    0.000000    0.000000    0.000000


 **********************************************************************************************************************************
 DATASETS  * FILE   NREC   LENGTH (MB)   RECORD NAMES
              1      19       51.17       500      610      700      900      950      970     1000      129      960     1100   
                                          VAR    BASINP    GEOM    SYMINP    ZMAT    AOBASIS   BASIS     P2S    ABASIS      S 
                                         1400     1410     1200     1210     1080     1600     1650     1300     1700   
                                           T        V       H0       H01     AOSYM     SMH    MOLCAS    ERIS     OPER   

 PROGRAMS   *        TOTAL       INT
 CPU TIMES  *         0.70      0.61
 REAL TIME  *         1.68 SEC
 DISK USED  *       125.48 MB      
 **********************************************************************************************************************************


 PROGRAM * RHF-SCF (CLOSED SHELL)       Authors: W. Meyer, H.-J. Werner


 NUMBER OF ELECTRONS:       5+    5-
 CONVERGENCE THRESHOLDS:    1.00E-05 (Density)    1.00E-07 (Energy)
 MAX. NUMBER OF ITERATIONS:       60
 INTERPOLATION TYPE:            DIIS
 INTERPOLATION STEPS:              2 (START)      1 (STEP)
 LEVEL SHIFTS:                  0.00 (CLOSED)  0.00 (OPEN) 



 Orbital guess generated from atomic densities. Full valence occupancy:    6   1

 Molecular orbital dump at record        2100.2

 Initial occupancy:   4   1

 ITERATION    DDIFF          GRAD             ENERGY        2-EL.EN.            DIPOLE MOMENTS         DIIS   ORB.
    1      0.000D+00      0.000D+00       -76.01880066     77.227441    0.00000    0.07223    1.18945    0    start
    2      0.000D+00      0.137D-01       -76.04591734     73.497777    0.00000    0.01939    0.68227    1    diag
    3      0.146D-01      0.886D-02       -76.05816544     75.165807    0.00000    0.02804    0.80933    2    diag
    4      0.524D-02      0.829D-03       -76.05837752     75.072564    0.00000    0.02323    0.80323    3    diag
    5      0.751D-03      0.244D-03       -76.05840304     75.088019    0.00000    0.02116    0.80086    4    diag
    6      0.284D-03      0.510D-04       -76.05840488     75.086710    0.00000    0.02046    0.80018    5    diag
    7      0.834D-04      0.107D-04       -76.05840497     75.086864    0.00000    0.02028    0.79998    6    diag
    8      0.190D-04      0.190D-05       -76.05840497     75.086847    0.00000    0.02026    0.79993    7    diag
    9      0.344D-05      0.269D-06       -76.05840497     75.086832    0.00000    0.02025    0.79992    0    orth

 Final occupancy:   4   1

 !RHF STATE 1.1 Energy                -76.058404974939
 Nuclear energy                         8.86904897
 One-electron energy                 -122.47086977
 Two-electron energy                   37.54341582
 Virial quotient                       -1.00249980
 !RHF STATE 1.1 Dipole moment           0.00000000     0.02025454     0.79992185
 Dipole moment /Debye                   0.00000000     0.05147855     2.03306539

 Orbital energies:

         1.1          2.1          3.1          4.1          5.1          6.1
    -20.571151    -1.336420    -0.697793    -0.578686     0.102182     0.121827

         1.2          2.2          3.2
     -0.507968     0.145662     0.478563

 HOMO      1.2    -0.507968 =     -13.8225eV
 LUMO      5.1     0.102182 =       2.7805eV
 LUMO-HOMO         0.610150 =      16.6030eV


 **********************************************************************************************************************************
 DATASETS  * FILE   NREC   LENGTH (MB)   RECORD NAMES
              1      19       51.17       500      610      700      900      950      970     1000      129      960     1100   
                                          VAR    BASINP    GEOM    SYMINP    ZMAT    AOBASIS   BASIS     P2S    ABASIS      S 
                                         1400     1410     1200     1210     1080     1600     1650     1300     1700   
                                           T        V       H0       H01     AOSYM     SMH    MOLCAS    ERIS     OPER   

              2       4        2.88       700     1000      520     2100   
                                         GEOM     BASIS   MCVARS     RHF  

 PROGRAMS   *        TOTAL        HF       INT
 CPU TIMES  *         0.96      0.26      0.61
 REAL TIME  *         2.04 SEC
 DISK USED  *       125.48 MB      
 **********************************************************************************************************************************


 PROGRAM * CCSD (Closed-shell coupled cluster)     Authors: C. Hampel, H.-J. Werner, 1991, M. Deegan, P.J. Knowles, 1992

                                  CCSD-F12 implementation by  H.-J. Werner, 2007

                   Density fitting integral evaluation by F.R. Manby, 2003,2007, G. Knizia, 2010

 Basis set AUG-CC-PVTZ/JKFIT generated.  Number of basis functions:   196 
 Basis set CC-PVTZ-F12/OPTRI generated.  Number of basis functions:   157 
 Basis set AUG-CC-PVTZ/MP2FIT generated. Number of basis functions:   198 

 Convergence thresholds:  THRVAR = 1.00D-08  THRDEN = 1.00D-06

 CCSD(T)     terms to be evaluated (factor= 1.000)


 Number of core orbitals:           1 (   1   0 )
 Number of closed-shell orbitals:   4 (   3   1 )
 Number of external orbitals:      84 (  57  27 )

 Molecular orbitals read from record     2100.2  Type=RHF/CANONICAL (state 1.1)

 MP2-F12 correlation treatment (H.-J. Werner, 2006)
 ==================================================

 Using MP2-F12 with ansatz 3C(FIX)

 Using projected zeroth-order Hamiltonian (+Z)

 FOCKRIB=T FOCKRIC=T FOCKRIP=T CABSP=T CABSA=T CABSK=T CABSF=T GBC=F EBC=F DMAT=T NOFIK=T NOPAO=1 SOLVE=-1  USEPAO=0
 EXCH_A= T EXCH_B= F EXCH_C= F EXCH_P= F
 
 Geminal basis:    OPTFULL  GEM_TYPE=SLATER  BETA=1.0  NGEM=6

 Optimizing Gaussian exponents for each gem_beta

 Geminal optimization for beta= 1.0000
 Weight function:   m=0, omega= 1.4646

 Augmented Hessian optimization of geminal fit. Trust ratio= 0.40000
 Convergence reached after   2 iterations. Final gradient= 8.41D-16, Step= 4.29D-06, Delta= 1.28D-09
 
 Alpha:                 0.19532     0.81920     2.85917     9.50073    35.69989   197.79328
 Coeff:                 0.27070     0.30552     0.18297     0.10986     0.06810     0.04224
 

 Symmetry turned off. Reference energy:        -76.058404974939

 All pairs explicitly correlated. Number of r12-pairs:           10

 Excluding core orbitals from MO domains
 
 AO(A)-basis ORBITAL           loaded. Number of functions:      89
 RI(R)-basis CC-PVTZ-F12/OPTRI loaded. Number of functions:     157
 DF-basis AUG-CC-PVTZ/JKFIT    loaded. Number of functions:     196

 Screening thresholds:   THRAO=  1.00D-10  THRMO=  1.00D-09  THRPROD=  1.00D-09
                         THRSW=  1.00D-05  THROV=  1.00D-12  THRAOF12=   1.00D-08

 CPU time for Fock operators                      1.08 sec
 
 Construction of ABS:
 Smallest eigenvalue of S          8.24E-04  (threshold= 1.00E-08)
 Ratio eigmin/eigmax               1.40E-04  (threshold= 1.00E-09)
 Smallest eigenvalue of S kept     8.24E-04  (threshold= 8.24E-04, 0 functions deleted, 157 kept)
 
 Construction of CABS:
 Smallest eigenvalue of S          2.19E-06  (threshold= 1.00E-08)
 Ratio eigmin/eigmax               2.19E-06  (threshold= 1.00E-09)
 Smallest eigenvalue of S kept     2.19E-06  (threshold= 2.19E-06, 0 functions deleted, 157 kept)
 
 CPU time for CABS singles                        0.01 sec

 CABS-singles contribution of  -0.00094720 patched into reference energy.
 New reference energy         -76.05935217
 
 AO(A)-basis ORBITAL           loaded. Number of functions:      89
 RI(R)-basis CC-PVTZ-F12/OPTRI loaded. Number of functions:     157
 DF-basis AUG-CC-PVTZ/MP2FIT   loaded. Number of functions:     198

 Screening thresholds:   THRAO=  1.00D-10  THRMO=  1.00D-09  THRPROD=  1.00D-09
                         THRSW=  1.00D-05  THROV=  1.00D-12  THRAOF12=   1.00D-08

 CPU time for 3-index integral evaluation         0.60 sec
 CPU time for first  half transformation          0.03 sec ( 5878.7 MFLOP/sec)
 CPU time for tilde quantities                    0.01 sec (10820.3 MFLOP/sec)
 CPU time for assembly                            0.02 sec (26756.3 MFLOP/sec)
 CPU time for tranop_f12                          0.02 sec (32596.5 MFLOP/sec)
 CPU time for f12 integrals (total)               1.58 sec, Elapsed time:      1.64 sec
 CPU time for f12 matrices (total)                0.01 sec, Elapsed time:      0.02 sec

 Diagonal F12 approximation with fixed coefficients:  TSING= 0.500,  TTRIP= 0.250 (scaled by -1/beta)

 DF-MP2-F12 energy corrections:
 ==============================
 Approx.                                    Singlet             Triplet             Total
 DF-MP2-F12/3*C(DX,FIX)                -0.025079925605     -0.002989004178     -0.028068929783
 DF-MP2-F12/3*C(FIX)                   -0.023333011976     -0.002708357338     -0.026041369315
 DF-MP2-F12/3C(FIX)                    -0.023257204618     -0.002803941636     -0.026061146254

 DF-MP2-F12 correlation energies:
 ================================
 Approx.                                    Singlet             Triplet             Ecorr            Total Energy
 DF-MP2                                -0.175778184174     -0.100169546373     -0.275947730546    -76.335299903641
 DF-MP2-F12/3*C(DX,FIX)                -0.200858109779     -0.103158550551     -0.304016660330    -76.363368833424
 DF-MP2-F12/3*C(FIX)                   -0.199111196150     -0.102877903711     -0.301989099861    -76.361341272956
 DF-MP2-F12/3C(FIX)                    -0.199035388792     -0.102973488009     -0.302008876800    -76.361361049895

 SCS-DF-MP2 energies (F_SING= 1.20000  F_TRIP= 0.62222  F_PARALLEL= 0.33333):
 ============================================================================
 SCS-DF-MP2                            -0.273261538751    -76.332613711846
 SCS-DF-MP2-F12/3*C(DX,FIX)            -0.305217274300    -76.364569447394
 SCS-DF-MP2-F12/3*C(FIX)               -0.302946353244    -76.362298526339
 SCS-DF-MP2-F12/3C(FIX)                -0.302914859089    -76.362267032183

 Symmetry restored.
 Symmetry transformation completed.

 Number of N-1 electron functions:               4
 Number of N-2 electron functions:              10
 Number of singly external CSFs:               198
 Number of doubly external CSFs:             29292
 Total number of CSFs:                       29491

 Length of J-op  integral file:               8.97 MB
 Length of K-op  integral file:              13.62 MB
 Length of 3-ext integral record:             0.00 MB

 Memory could be reduced to 2.37 Mwords without degradation in triples

 Integral transformation finished. Total CPU:   0.07 sec, npass=  1  Memory used:   0.62 MW

 Reference energy:                    -76.05935217

 Adding F12 terms to K(Cij), methodcc=6,  factor= 1.0

 ITER.      SQ.NORM     CORR.ENERGY   TOTAL ENERGY   ENERGY CHANGE        DEN1      VAR(S)    VAR(P)  DIIS     TIME  TIME/IT
   1      1.06374128    -0.27593917   -76.33529134     0.00005207     0.00626024  0.81D-03  0.11D-02  1  1     3.03     0.07
   2      1.06732612    -0.27569398   -76.33504615     0.00024519    -0.00484105  0.15D-04  0.12D-03  2  2     3.09     0.07
   3      1.06864719    -0.27584005   -76.33519222    -0.00014607    -0.00086801  0.99D-05  0.81D-05  3  3     3.16     0.08
   4      1.06926245    -0.27586397   -76.33521614    -0.00002392    -0.00039125  0.48D-06  0.64D-06  4  4     3.21     0.08
   5      1.06936702    -0.27586239   -76.33521456     0.00000158    -0.00002309  0.14D-06  0.40D-07  5  5     3.29     0.08
   6      1.06939506    -0.27586100   -76.33521317     0.00000139    -0.00000473  0.12D-07  0.41D-08  6  6     3.36     0.08
   7      1.06940215    -0.27586060   -76.33521277     0.00000040    -0.00000160  0.12D-08  0.31D-09  6  1     3.42     0.08
   8      1.06940379    -0.27586066   -76.33521283    -0.00000006    -0.00000001  0.99D-10  0.37D-10  6  2     3.50     0.08

 Norm of t1 vector:      0.03744115      S-energy:    -0.00000013      T1 diagnostic:  0.00936029
                                                                       D1 diagnostic:  0.01880356

 Adding energy correction from Wij-K(Fij), methodcc=6  factor= 1.0
 
  CCSD correlation energy              -0.275860659314
  MP2-F12 correction (uncoupled)       -0.024933888804
  C*T doubles correction               -0.000840753308
  f12b correction                       0.004291393575


 Total CPU time for triples:      0.45 sec


 RESULTS
 =======

  Reference energy                    -76.058404974939
  F12 singles correction               -0.000947198156

 F12 singles corrections added to reference energy

  New reference energy                -76.059352173095

  F12a singlet correction              -0.023076926956
  F12a triplet correction              -0.002697715156
  F12a total correction                -0.025774642112

 F12a corrections for ansatz F12/3C(FIX) added to CCSD energy
 
  CCSD-F12a singlet pair energy        -0.210707115256
  CCSD-F12a triplet pair energy        -0.090928052075
  CCSD-F12a correlation energy         -0.301635301426

  Triples (T) contribution             -0.009086736830
  Total correlation energy             -0.310722038256

  CCSD-F12a total energy              -76.360987474520
  CCSD[T]-F12a energy                 -76.370397215705
  CCSD-T-F12a energy                  -76.369931579233
 !CCSD(T)-F12a total energy           -76.370074211351

 F12b corrections for ansatz F12/3C(FIX) added to CCSD(T)-F12a energy

  CCSD-F12b singlet pair energy        -0.206725676323
  CCSD-F12b triplet pair energy        -0.090618097432
  CCSD-F12b correlation energy         -0.297343907850

  Triples (T) contribution             -0.009086736830
  Total correlation energy             -0.306430644681

  CCSD-F12b total energy              -76.356696080945
  CCSD[T]-F12b energy                 -76.366105822130
  CCSD-T-F12b energy                  -76.365640185657
 !CCSD(T)-F12b total energy           -76.365782817775

 Timing summary (sec):

 STEP                 CPU(USER)    SYS     CPU(TOT)    WALL
 Transformation          0.08      0.02      0.10      0.10
 CCSD iterations         0.58      0.09      0.67      0.67
 Triples                 0.45      0.01      0.46      0.45
 MP2-F12                 2.84      0.09      2.93      2.93
 F12b energy             0.05      0.01      0.06      0.07

 Program statistics:

 Available memory in ccsd:                49999786
 Min. memory needed in ccsd:                145972
 Max. memory used in ccsd:                  166319
 Max. memory used in cckext:                248663 ( 9 integral passes)



 **********************************************************************************************************************************
 DATASETS  * FILE   NREC   LENGTH (MB)   RECORD NAMES
              1      20       56.67       500      610      700      900      950      970     1000      129      960     1100   
                                          VAR    BASINP    GEOM    SYMINP    ZMAT    AOBASIS   BASIS     P2S    ABASIS      S 
                                         1400     1410     1200     1210     1080     1600     1650     1300     1700     1380   
                                           T        V       H0       H01     AOSYM     SMH    MOLCAS    ERIS     OPER     JKOP   

              2       6        2.97       700     1000      520     2100     7360     7350   
                                         GEOM     BASIS   MCVARS     RHF    F12ABS    EF12   

 PROGRAMS   *        TOTAL   CCSD(T)        HF       INT
 CPU TIMES  *         4.98      4.02      0.26      0.61
 REAL TIME  *         6.52 SEC
 DISK USED  *       125.48 MB      
 **********************************************************************************************************************************

 CCSD(T)-F12/cc-pVTZ-F12 energy=    -76.365782817775

     CCSD(T)-F12        HF-SCF  
    -76.36578282    -76.05840497
 **********************************************************************************************************************************
 Molpro calculation terminated
 Variable memory released
