
 Primary working directories    : /tmp/r2518/22891.maple
 Secondary working directories  : /tmp/r2518/22891.maple
 Wavefunction directory         : /ddn/home1/r2518/wfu/
 Main file repository           : /tmp/r2518/22891.maple/

 SHA1      : d5ffa45e93fdbca01ffc919aa182cfdae0147319
 NAME      : 2015.1.35
 ARCHNAME  : linux/x86_64
 FC        : /opt/intel/composer_xe_2015.1.133/bin/intel64/ifort
 BLASLIB   : -Wl,-_start-group /opt/intel/mkl/lib/intel64/libmkl_intel_ilp64.a /opt/intel/mkl/lib/intel64/libmkl_intel_thread.a /opt/intel/mkl/lib/intel64/libmkl_core.a -Wl,-_end-group
 id        : olemiss

 Nodes     nprocs
 cn058        1

 Using customized tuning parameters: mindgm=1; mindgv=20; mindgc=4; mindgr=1; noblas=0; minvec=7
 default implementation of scratch files=df  

 memory,50,m
 nocompress;
 geomtyp=xyz
 angstrom
 geometry={
 O,0.0,0.0,-0.0657441568
 H,0.0,0.7574590974,0.5217905143
 H,0.0,-0.8074590974,0.4717905143
 }
 basis=cc-pVTZ-F12
 set,charge=0
 set,spin=0
 hf
 {CCSD(T)-F12}

 Variables initialized (889), CPU time= 0.01 sec
 Commands  initialized (702), CPU time= 0.00 sec, 572 directives.
 Default parameters read. Elapsed time= 0.14 sec

 Checking input...
 Passed
1


                                         ***  PROGRAM SYSTEM MOLPRO  ***
                                       Copyright, TTI GmbH Stuttgart, 2015
                                    Version 2015.1 linked Jul  9 2018 13:16:40


 **********************************************************************************************************************************
 LABEL *                                                                                 
  64 bit serial version                                                                  DATE: 28-Aug-19          TIME: 15:37:34  
 **********************************************************************************************************************************

 SHA1:             d5ffa45e93fdbca01ffc919aa182cfdae0147319
 **********************************************************************************************************************************

 Input parameters for SORTINT:

 COMPRESS =    0.000000
 C_FINAL  =    1.000000
 DEBUG    =   -1.000000
 C_SORT1  =    0.000000
 C_SEWARD =    0.000000
 THRESH   =    0.000000
 IO       =  molpro                                                          
 SPRI     =    0.000000
 SETTING GEOMTYP        =    XYZ
 ZUNIT=ANG
 

 Variable memory set to   50000000 words,  buffer space   230000 words

 SETTING BASIS          =    CC-PVTZ-F12
 SETTING CHARGE         =     0.00000000D+00                                  
 SETTING SPIN           =     0.00000000D+00                                  


 Recomputing integrals since basis changed


 Using spherical harmonics

 Library entry O      S cc-pVTZ-F12          selected for orbital group  1
 Library entry O      P cc-pVTZ-F12          selected for orbital group  1
 Library entry O      D cc-pVTZ-F12          selected for orbital group  1
 Library entry O      F cc-pVTZ-F12          selected for orbital group  1
 Library entry H      S cc-pVTZ-F12          selected for orbital group  2
 Library entry H      P cc-pVTZ-F12          selected for orbital group  2
 Library entry H      D cc-pVTZ-F12          selected for orbital group  2


 PROGRAM * SEWARD (Integral evaluation for generally contracted gaussian basis sets)     Author: Roland Lindh, 1990

 Geometry written to block  1 of record 700


 Point group  Cs  



 ATOMIC COORDINATES

 NR  ATOM    CHARGE       X              Y              Z

   1  O       8.00    0.000000000    0.000000000   -0.124238451
   2  H       1.00    0.000000000    1.431390245    0.986041166
   3  H       1.00    0.000000000   -1.525876551    0.891554860

 Bond lengths in Bohr (Angstrom)

 1-2  1.811518385  1-3  1.833067183
     ( 0.958614247)     ( 0.970017380)

 Bond angles

  2-1-3  108.54835532

 NUCLEAR CHARGE:                   10
 NUMBER OF PRIMITIVE AOS:         114
 NUMBER OF SYMMETRY AOS:          103
 NUMBER OF CONTRACTIONS:           89   (  61A'  +  28A"  )
 NUMBER OF CORE ORBITALS:           1   (   1A'  +   0A"  )
 NUMBER OF VALENCE ORBITALS:        6   (   5A'  +   1A"  )


 NUCLEAR REPULSION ENERGY    9.11843237

 Eigenvalues of metric

         1 0.218E-03 0.447E-03 0.574E-03 0.712E-03 0.800E-03 0.161E-02 0.203E-02 0.223E-02
         2 0.692E-03 0.849E-02 0.105E-01 0.431E-01 0.840E-01 0.908E-01 0.125E+00 0.192E+00


 Contracted 2-electron integrals neglected if value below      1.0D-11

        3676674. INTEGRALS WRITTEN OUT IN     898 BLOCKS ON RECORD 1290 OF FILE 1


 NUMBER OF SORTED TWO-ELECTRON INTEGRALS:    4174745.     BUFFER LENGTH:  32768
 NUMBER OF SEGMENTS:   1  SEGMENT LENGTH:    4174745      RECORD LENGTH: 524288

 Memory used in sort:       4.73 MW

 SORT1 READ     3676674. AND WROTE     3739790. INTEGRALS IN     11 RECORDS. CPU TIME:     0.12 SEC, REAL TIME:     0.16 SEC
 SORT2 READ     3739790. AND WROTE     4174745. INTEGRALS IN      1 RECORDS. CPU TIME:     0.08 SEC, REAL TIME:     0.13 SEC

 FILE SIZES:   FILE 1:    79.0 MBYTE,  FILE 4:    46.2 MBYTE,   TOTAL:    125.2 MBYTE

 OPERATOR DM      FOR CENTER  0  COORDINATES:    0.000000    0.000000    0.000000


 **********************************************************************************************************************************
 DATASETS  * FILE   NREC   LENGTH (MB)   RECORD NAMES
              1      19       51.17       500      610      700      900      950      970     1000      129      960     1100   
                                          VAR    BASINP    GEOM    SYMINP    ZMAT    AOBASIS   BASIS     P2S    ABASIS      S 
                                         1400     1410     1200     1210     1080     1600     1650     1300     1700   
                                           T        V       H0       H01     AOSYM     SMH    MOLCAS    ERIS     OPER   

 PROGRAMS   *        TOTAL       INT
 CPU TIMES  *         0.71      0.62
 REAL TIME  *         1.15 SEC
 DISK USED  *       125.48 MB      
 **********************************************************************************************************************************


 PROGRAM * RHF-SCF (CLOSED SHELL)       Authors: W. Meyer, H.-J. Werner


 NUMBER OF ELECTRONS:       5+    5-
 CONVERGENCE THRESHOLDS:    1.00E-05 (Density)    1.00E-07 (Energy)
 MAX. NUMBER OF ITERATIONS:       60
 INTERPOLATION TYPE:            DIIS
 INTERPOLATION STEPS:              2 (START)      1 (STEP)
 LEVEL SHIFTS:                  0.00 (CLOSED)  0.00 (OPEN) 



 Orbital guess generated from atomic densities. Full valence occupancy:    6   1

 Molecular orbital dump at record        2100.2

 Initial occupancy:   4   1

 ITERATION    DDIFF          GRAD             ENERGY        2-EL.EN.            DIPOLE MOMENTS         DIIS   ORB.
    1      0.000D+00      0.000D+00       -76.02667254     77.599710    0.00000   -0.05270    1.09723    0    start
    2      0.000D+00      0.136D-01       -76.05319793     73.991510    0.00000   -0.02802    0.65721    1    diag
    3      0.146D-01      0.847D-02       -76.06418719     75.576000    0.00000   -0.03331    0.76474    2    diag
    4      0.504D-02      0.795D-03       -76.06437410     75.485377    0.00000   -0.03247    0.76107    3    diag
    5      0.736D-03      0.216D-03       -76.06439255     75.498680    0.00000   -0.03213    0.75957    4    diag
    6      0.253D-03      0.418D-04       -76.06439369     75.497744    0.00000   -0.03202    0.75922    5    diag
    7      0.737D-04      0.823D-05       -76.06439374     75.497894    0.00000   -0.03199    0.75907    6    diag
    8      0.163D-04      0.172D-05       -76.06439374     75.497884    0.00000   -0.03199    0.75902    7    diag
    9      0.305D-05      0.233D-06       -76.06439374     75.497873    0.00000   -0.03199    0.75902    0    orth

 Final occupancy:   4   1

 !RHF STATE 1.1 Energy                -76.064393742495
 Nuclear energy                         9.11843237
 One-electron energy                 -122.93176260
 Two-electron energy                   37.74893649
 Virial quotient                       -1.00137076
 !RHF STATE 1.1 Dipole moment           0.00000000    -0.03198650     0.75901644
 Dipole moment /Debye                   0.00000000    -0.08129625     1.92910101

 Orbital energies:

         1.1          2.1          3.1          4.1          5.1          6.1
    -20.564275    -1.346557    -0.721568    -0.575826     0.103606     0.119470

         1.2          2.2          3.2
     -0.508719     0.145472     0.477310

 HOMO      1.2    -0.508719 =     -13.8430eV
 LUMO      5.1     0.103606 =       2.8193eV
 LUMO-HOMO         0.612326 =      16.6622eV


 **********************************************************************************************************************************
 DATASETS  * FILE   NREC   LENGTH (MB)   RECORD NAMES
              1      19       51.17       500      610      700      900      950      970     1000      129      960     1100   
                                          VAR    BASINP    GEOM    SYMINP    ZMAT    AOBASIS   BASIS     P2S    ABASIS      S 
                                         1400     1410     1200     1210     1080     1600     1650     1300     1700   
                                           T        V       H0       H01     AOSYM     SMH    MOLCAS    ERIS     OPER   

              2       4        2.88       700     1000      520     2100   
                                         GEOM     BASIS   MCVARS     RHF  

 PROGRAMS   *        TOTAL        HF       INT
 CPU TIMES  *         0.97      0.26      0.62
 REAL TIME  *         1.50 SEC
 DISK USED  *       125.48 MB      
 **********************************************************************************************************************************


 PROGRAM * CCSD (Closed-shell coupled cluster)     Authors: C. Hampel, H.-J. Werner, 1991, M. Deegan, P.J. Knowles, 1992

                                  CCSD-F12 implementation by  H.-J. Werner, 2007

                   Density fitting integral evaluation by F.R. Manby, 2003,2007, G. Knizia, 2010

 Basis set AUG-CC-PVTZ/JKFIT generated.  Number of basis functions:   196 
 Basis set CC-PVTZ-F12/OPTRI generated.  Number of basis functions:   157 
 Basis set AUG-CC-PVTZ/MP2FIT generated. Number of basis functions:   198 

 Convergence thresholds:  THRVAR = 1.00D-08  THRDEN = 1.00D-06

 CCSD(T)     terms to be evaluated (factor= 1.000)


 Number of core orbitals:           1 (   1   0 )
 Number of closed-shell orbitals:   4 (   3   1 )
 Number of external orbitals:      84 (  57  27 )

 Molecular orbitals read from record     2100.2  Type=RHF/CANONICAL (state 1.1)

 MP2-F12 correlation treatment (H.-J. Werner, 2006)
 ==================================================

 Using MP2-F12 with ansatz 3C(FIX)

 Using projected zeroth-order Hamiltonian (+Z)

 FOCKRIB=T FOCKRIC=T FOCKRIP=T CABSP=T CABSA=T CABSK=T CABSF=T GBC=F EBC=F DMAT=T NOFIK=T NOPAO=1 SOLVE=-1  USEPAO=0
 EXCH_A= T EXCH_B= F EXCH_C= F EXCH_P= F
 
 Geminal basis:    OPTFULL  GEM_TYPE=SLATER  BETA=1.0  NGEM=6

 Optimizing Gaussian exponents for each gem_beta

 Geminal optimization for beta= 1.0000
 Weight function:   m=0, omega= 1.4646

 Augmented Hessian optimization of geminal fit. Trust ratio= 0.40000
 Convergence reached after   2 iterations. Final gradient= 8.41D-16, Step= 4.29D-06, Delta= 1.28D-09
 
 Alpha:                 0.19532     0.81920     2.85917     9.50073    35.69989   197.79328
 Coeff:                 0.27070     0.30552     0.18297     0.10986     0.06810     0.04224
 

 Symmetry turned off. Reference energy:        -76.064393742495

 All pairs explicitly correlated. Number of r12-pairs:           10

 Excluding core orbitals from MO domains
 
 AO(A)-basis ORBITAL           loaded. Number of functions:      89
 RI(R)-basis CC-PVTZ-F12/OPTRI loaded. Number of functions:     157
 DF-basis AUG-CC-PVTZ/JKFIT    loaded. Number of functions:     196

 Screening thresholds:   THRAO=  1.00D-10  THRMO=  1.00D-09  THRPROD=  1.00D-09
                         THRSW=  1.00D-05  THROV=  1.00D-12  THRAOF12=   1.00D-08

 CPU time for Fock operators                      1.07 sec
 
 Construction of ABS:
 Smallest eigenvalue of S          8.00E-04  (threshold= 1.00E-08)
 Ratio eigmin/eigmax               1.34E-04  (threshold= 1.00E-09)
 Smallest eigenvalue of S kept     8.00E-04  (threshold= 8.00E-04, 0 functions deleted, 157 kept)
 
 Construction of CABS:
 Smallest eigenvalue of S          1.92E-06  (threshold= 1.00E-08)
 Ratio eigmin/eigmax               1.92E-06  (threshold= 1.00E-09)
 Smallest eigenvalue of S kept     1.92E-06  (threshold= 1.92E-06, 0 functions deleted, 157 kept)
 
 CPU time for CABS singles                        0.01 sec

 CABS-singles contribution of  -0.00099447 patched into reference energy.
 New reference energy         -76.06538821
 
 AO(A)-basis ORBITAL           loaded. Number of functions:      89
 RI(R)-basis CC-PVTZ-F12/OPTRI loaded. Number of functions:     157
 DF-basis AUG-CC-PVTZ/MP2FIT   loaded. Number of functions:     198

 Screening thresholds:   THRAO=  1.00D-10  THRMO=  1.00D-09  THRPROD=  1.00D-09
                         THRSW=  1.00D-05  THROV=  1.00D-12  THRAOF12=   1.00D-08

 CPU time for 3-index integral evaluation         0.56 sec
 CPU time for first  half transformation          0.03 sec ( 5878.7 MFLOP/sec)
 CPU time for fitting                             0.01 sec ( 8185.8 MFLOP/sec)
 CPU time for tilde quantities                    0.01 sec (10820.3 MFLOP/sec)
 CPU time for assembly                            0.02 sec (26756.3 MFLOP/sec)
 CPU time for tranop_f12                          0.02 sec (32596.5 MFLOP/sec)
 CPU time for f12 integrals (total)               1.53 sec, Elapsed time:      1.57 sec
 CPU time for f12 matrices (total)                0.01 sec, Elapsed time:      0.01 sec

 Diagonal F12 approximation with fixed coefficients:  TSING= 0.500,  TTRIP= 0.250 (scaled by -1/beta)

 DF-MP2-F12 energy corrections:
 ==============================
 Approx.                                    Singlet             Triplet             Total
 DF-MP2-F12/3*C(DX,FIX)                -0.025245724569     -0.003015882760     -0.028261607328
 DF-MP2-F12/3*C(FIX)                   -0.023458435326     -0.002726474795     -0.026184910121
 DF-MP2-F12/3C(FIX)                    -0.023384365024     -0.002822719641     -0.026207084665

 DF-MP2-F12 correlation energies:
 ================================
 Approx.                                    Singlet             Triplet             Ecorr            Total Energy
 DF-MP2                                -0.173994437121     -0.099282313852     -0.273276750973    -76.338664962650
 DF-MP2-F12/3*C(DX,FIX)                -0.199240161690     -0.102298196612     -0.301538358302    -76.366926569978
 DF-MP2-F12/3*C(FIX)                   -0.197452872447     -0.102008788647     -0.299461661094    -76.364849872770
 DF-MP2-F12/3C(FIX)                    -0.197378802145     -0.102105033493     -0.299483835638    -76.364872047314

 SCS-DF-MP2 energies (F_SING= 1.20000  F_TRIP= 0.62222  F_PARALLEL= 0.33333):
 ============================================================================
 SCS-DF-MP2                            -0.270568986498    -76.335957198174
 SCS-DF-MP2-F12/3*C(DX,FIX)            -0.302740405253    -76.368128616929
 SCS-DF-MP2-F12/3*C(FIX)               -0.300415582095    -76.365803793771
 SCS-DF-MP2-F12/3C(FIX)                -0.300386583414    -76.365774795090

 Symmetry restored.
 Symmetry transformation completed.

 Number of N-1 electron functions:               4
 Number of N-2 electron functions:              10
 Number of singly external CSFs:               198
 Number of doubly external CSFs:             29292
 Total number of CSFs:                       29491

 Length of J-op  integral file:               8.97 MB
 Length of K-op  integral file:              13.62 MB
 Length of 3-ext integral record:             0.00 MB

 Memory could be reduced to 2.37 Mwords without degradation in triples

 Integral transformation finished. Total CPU:   0.06 sec, npass=  1  Memory used:   0.62 MW

 Reference energy:                    -76.06538821

 Adding F12 terms to K(Cij), methodcc=6,  factor= 1.0

 ITER.      SQ.NORM     CORR.ENERGY   TOTAL ENERGY   ENERGY CHANGE        DEN1      VAR(S)    VAR(P)  DIIS     TIME  TIME/IT
   1      1.06167848    -0.27358274   -76.33897095    -0.00026298     0.00553304  0.72D-03  0.97D-03  1  1     2.94     0.07
   2      1.06491124    -0.27332351   -76.33871172     0.00025923    -0.00453068  0.13D-04  0.10D-03  2  2     2.99     0.07
   3      1.06604401    -0.27344981   -76.33883802    -0.00012630    -0.00078477  0.85D-05  0.65D-05  3  3     3.05     0.07
   4      1.06655692    -0.27347108   -76.33885929    -0.00002127    -0.00034142  0.42D-06  0.52D-06  4  4     3.12     0.07
   5      1.06664452    -0.27346956   -76.33885777     0.00000152    -0.00001907  0.12D-06  0.31D-07  5  5     3.18     0.07
   6      1.06666828    -0.27346831   -76.33885652     0.00000125    -0.00000399  0.10D-07  0.32D-08  6  6     3.24     0.07
   7      1.06667440    -0.27346795   -76.33885616     0.00000036    -0.00000140  0.89D-09  0.24D-09  6  1     3.30     0.07
   8      1.06667580    -0.27346801   -76.33885622    -0.00000006    -0.00000001  0.72D-10  0.27D-10  6  2     3.36     0.07

 Norm of t1 vector:      0.03504314      S-energy:    -0.00000011      T1 diagnostic:  0.00876079
                                                                       D1 diagnostic:  0.01746348

 Adding energy correction from Wij-K(Fij), methodcc=6  factor= 1.0
 
  CCSD correlation energy              -0.273468005595
  MP2-F12 correction (uncoupled)       -0.025083670351
  C*T doubles correction               -0.000840962957
  f12b correction                       0.004278274382


 Total CPU time for triples:      0.30 sec


 RESULTS
 =======

  Reference energy                    -76.064393742495
  F12 singles correction               -0.000994469182

 F12 singles corrections added to reference energy

  New reference energy                -76.065388211676

  F12a singlet correction              -0.023207905304
  F12a triplet correction              -0.002716728004
  F12a total correction                -0.025924633308

 F12a corrections for ansatz F12/3C(FIX) added to CCSD energy
 
  CCSD-F12a singlet pair energy        -0.208669532994
  CCSD-F12a triplet pair energy        -0.090722998030
  CCSD-F12a correlation energy         -0.299392638902

  Triples (T) contribution             -0.008752633011
  Total correlation energy             -0.308145271913

  CCSD-F12a total energy              -76.364780850579
  CCSD[T]-F12a energy                 -76.373826499395
  CCSD-T-F12a energy                  -76.373406090802
 !CCSD(T)-F12a total energy           -76.373533483590

 F12b corrections for ansatz F12/3C(FIX) added to CCSD(T)-F12a energy

  CCSD-F12b singlet pair energy        -0.204702684048
  CCSD-F12b triplet pair energy        -0.090411572594
  CCSD-F12b correlation energy         -0.295114364520

  Triples (T) contribution             -0.008752633011
  Total correlation energy             -0.303866997531

  CCSD-F12b total energy              -76.360502576196
  CCSD[T]-F12b energy                 -76.369548225013
  CCSD-T-F12b energy                  -76.369127816420
 !CCSD(T)-F12b total energy           -76.369255209207

 Timing summary (sec):

 STEP                 CPU(USER)    SYS     CPU(TOT)    WALL
 Transformation          0.06      0.02      0.08      0.09
 CCSD iterations         0.53      0.09      0.62      0.61
 Triples                 0.30      0.00      0.30      0.31
 MP2-F12                 2.77      0.05      2.82      2.83
 F12b energy             0.05      0.01      0.06      0.06

 Program statistics:

 Available memory in ccsd:                49999786
 Min. memory needed in ccsd:                145972
 Max. memory used in ccsd:                  166319
 Max. memory used in cckext:                248663 ( 9 integral passes)



 **********************************************************************************************************************************
 DATASETS  * FILE   NREC   LENGTH (MB)   RECORD NAMES
              1      20       56.67       500      610      700      900      950      970     1000      129      960     1100   
                                          VAR    BASINP    GEOM    SYMINP    ZMAT    AOBASIS   BASIS     P2S    ABASIS      S 
                                         1400     1410     1200     1210     1080     1600     1650     1300     1700     1380   
                                           T        V       H0       H01     AOSYM     SMH    MOLCAS    ERIS     OPER     JKOP   

              2       6        2.97       700     1000      520     2100     7360     7350   
                                         GEOM     BASIS   MCVARS     RHF    F12ABS    EF12   

 PROGRAMS   *        TOTAL   CCSD(T)        HF       INT
 CPU TIMES  *         4.71      3.74      0.26      0.62
 REAL TIME  *         5.44 SEC
 DISK USED  *       125.48 MB      
 **********************************************************************************************************************************

 CCSD(T)-F12/cc-pVTZ-F12 energy=    -76.369255209207

     CCSD(T)-F12        HF-SCF  
    -76.36925521    -76.06439374
 **********************************************************************************************************************************
 Molpro calculation terminated
 Variable memory released
