
 Primary working directories    : /tmp/r2518/22957.maple
 Secondary working directories  : /tmp/r2518/22957.maple
 Wavefunction directory         : /ddn/home1/r2518/wfu/
 Main file repository           : /tmp/r2518/22957.maple/

 SHA1      : d5ffa45e93fdbca01ffc919aa182cfdae0147319
 NAME      : 2015.1.35
 ARCHNAME  : linux/x86_64
 FC        : /opt/intel/composer_xe_2015.1.133/bin/intel64/ifort
 BLASLIB   : -Wl,-_start-group /opt/intel/mkl/lib/intel64/libmkl_intel_ilp64.a /opt/intel/mkl/lib/intel64/libmkl_intel_thread.a /opt/intel/mkl/lib/intel64/libmkl_core.a -Wl,-_end-group
 id        : olemiss

 Nodes     nprocs
 cn058        1

 Using customized tuning parameters: mindgm=1; mindgv=20; mindgc=4; mindgr=1; noblas=0; minvec=7
 default implementation of scratch files=df  

 memory,50,m
 nocompress;
 geomtyp=xyz
 angstrom
 geometry={
 O,0.0,0.0,-0.0657441568
 H,0.0,0.7574590974,0.5717905143
 H,0.0,-0.7574590974,0.4717905143
 }
 basis=cc-pVTZ-F12
 set,charge=0
 set,spin=0
 hf
 {CCSD(T)-F12}

 Variables initialized (889), CPU time= 0.00 sec
 Commands  initialized (702), CPU time= 0.01 sec, 572 directives.
 Default parameters read. Elapsed time= 0.06 sec

 Checking input...
 Passed
1


                                         ***  PROGRAM SYSTEM MOLPRO  ***
                                       Copyright, TTI GmbH Stuttgart, 2015
                                    Version 2015.1 linked Jul  9 2018 13:16:40


 **********************************************************************************************************************************
 LABEL *                                                                                 
  64 bit serial version                                                                  DATE: 28-Aug-19          TIME: 15:37:45  
 **********************************************************************************************************************************

 SHA1:             d5ffa45e93fdbca01ffc919aa182cfdae0147319
 **********************************************************************************************************************************

 Input parameters for SORTINT:

 COMPRESS =    0.000000
 C_FINAL  =    1.000000
 DEBUG    =   -1.000000
 C_SORT1  =    0.000000
 C_SEWARD =    0.000000
 THRESH   =    0.000000
 IO       =  molpro                                                          
 SPRI     =    0.000000
 SETTING GEOMTYP        =    XYZ
 ZUNIT=ANG
 

 Variable memory set to   50000000 words,  buffer space   230000 words

 SETTING BASIS          =    CC-PVTZ-F12
 SETTING CHARGE         =     0.00000000D+00                                  
 SETTING SPIN           =     0.00000000D+00                                  


 Recomputing integrals since basis changed


 Using spherical harmonics

 Library entry O      S cc-pVTZ-F12          selected for orbital group  1
 Library entry O      P cc-pVTZ-F12          selected for orbital group  1
 Library entry O      D cc-pVTZ-F12          selected for orbital group  1
 Library entry O      F cc-pVTZ-F12          selected for orbital group  1
 Library entry H      S cc-pVTZ-F12          selected for orbital group  2
 Library entry H      P cc-pVTZ-F12          selected for orbital group  2
 Library entry H      D cc-pVTZ-F12          selected for orbital group  2


 PROGRAM * SEWARD (Integral evaluation for generally contracted gaussian basis sets)     Author: Roland Lindh, 1990

 Geometry written to block  1 of record 700


 Point group  Cs  



 ATOMIC COORDINATES

 NR  ATOM    CHARGE       X              Y              Z

   1  O       8.00    0.000000000    0.000000000   -0.124238451
   2  H       1.00    0.000000000    1.431390245    1.080527473
   3  H       1.00    0.000000000   -1.431390245    0.891554860

 Bond lengths in Bohr (Angstrom)

 1-2  1.870919283  1-3  1.755196309
     ( 0.990047848)     ( 0.928809887)

 Bond angles

  2-1-3  104.55189728

 NUCLEAR CHARGE:                   10
 NUMBER OF PRIMITIVE AOS:         114
 NUMBER OF SYMMETRY AOS:          103
 NUMBER OF CONTRACTIONS:           89   (  61A'  +  28A"  )
 NUMBER OF CORE ORBITALS:           1   (   1A'  +   0A"  )
 NUMBER OF VALENCE ORBITALS:        6   (   5A'  +   1A"  )


 NUCLEAR REPULSION ENERGY    9.18241974

 Eigenvalues of metric

         1 0.212E-03 0.456E-03 0.574E-03 0.710E-03 0.796E-03 0.158E-02 0.201E-02 0.216E-02
         2 0.691E-03 0.771E-02 0.110E-01 0.438E-01 0.837E-01 0.893E-01 0.127E+00 0.188E+00


 Contracted 2-electron integrals neglected if value below      1.0D-11

        3665602. INTEGRALS WRITTEN OUT IN     896 BLOCKS ON RECORD 1290 OF FILE 1


 NUMBER OF SORTED TWO-ELECTRON INTEGRALS:    4174745.     BUFFER LENGTH:  32768
 NUMBER OF SEGMENTS:   1  SEGMENT LENGTH:    4174745      RECORD LENGTH: 524288

 Memory used in sort:       4.73 MW

 SORT1 READ     3665602. AND WROTE     3728718. INTEGRALS IN     11 RECORDS. CPU TIME:     0.14 SEC, REAL TIME:     0.16 SEC
 SORT2 READ     3728718. AND WROTE     4174745. INTEGRALS IN      1 RECORDS. CPU TIME:     0.09 SEC, REAL TIME:     0.12 SEC

 FILE SIZES:   FILE 1:    78.9 MBYTE,  FILE 4:    46.2 MBYTE,   TOTAL:    125.0 MBYTE

 OPERATOR DM      FOR CENTER  0  COORDINATES:    0.000000    0.000000    0.000000


 **********************************************************************************************************************************
 DATASETS  * FILE   NREC   LENGTH (MB)   RECORD NAMES
              1      19       51.11       500      610      700      900      950      970     1000      129      960     1100   
                                          VAR    BASINP    GEOM    SYMINP    ZMAT    AOBASIS   BASIS     P2S    ABASIS      S 
                                         1400     1410     1200     1210     1080     1600     1650     1300     1700   
                                           T        V       H0       H01     AOSYM     SMH    MOLCAS    ERIS     OPER   

 PROGRAMS   *        TOTAL       INT
 CPU TIMES  *         0.75      0.65
 REAL TIME  *         1.24 SEC
 DISK USED  *       125.35 MB      
 **********************************************************************************************************************************


 PROGRAM * RHF-SCF (CLOSED SHELL)       Authors: W. Meyer, H.-J. Werner


 NUMBER OF ELECTRONS:       5+    5-
 CONVERGENCE THRESHOLDS:    1.00E-05 (Density)    1.00E-07 (Energy)
 MAX. NUMBER OF ITERATIONS:       60
 INTERPOLATION TYPE:            DIIS
 INTERPOLATION STEPS:              2 (START)      1 (STEP)
 LEVEL SHIFTS:                  0.00 (CLOSED)  0.00 (OPEN) 



 Orbital guess generated from atomic densities. Full valence occupancy:    6   1

 Molecular orbital dump at record        2100.2

 Initial occupancy:   4   1

 ITERATION    DDIFF          GRAD             ENERGY        2-EL.EN.            DIPOLE MOMENTS         DIIS   ORB.
    1      0.000D+00      0.000D+00       -76.02480093     77.672518    0.00000    0.01967    1.13900    0    start
    2      0.000D+00      0.137D-01       -76.05190322     74.064424    0.00000   -0.00779    0.67637    1    diag
    3      0.148D-01      0.852D-02       -76.06303327     75.650782    0.00000   -0.00496    0.79064    2    diag
    4      0.507D-02      0.805D-03       -76.06322329     75.560186    0.00000   -0.00857    0.78671    3    diag
    5      0.740D-03      0.221D-03       -76.06324286     75.574163    0.00000   -0.01003    0.78523    4    diag
    6      0.259D-03      0.433D-04       -76.06324409     75.573197    0.00000   -0.01050    0.78488    5    diag
    7      0.738D-04      0.875D-05       -76.06324415     75.573336    0.00000   -0.01062    0.78475    6    diag
    8      0.159D-04      0.170D-05       -76.06324415     75.573326    0.00000   -0.01064    0.78470    7    diag
    9      0.298D-05      0.222D-06       -76.06324415     75.573313    0.00000   -0.01064    0.78470    0    orth

 Final occupancy:   4   1

 !RHF STATE 1.1 Energy                -76.063244149409
 Nuclear energy                         9.18241974
 One-electron energy                 -123.03232023
 Two-electron energy                   37.78665634
 Virial quotient                       -1.00093024
 !RHF STATE 1.1 Dipole moment           0.00000000    -0.01064134     0.78470050
 Dipole moment /Debye                   0.00000000    -0.02704581     1.99437911

 Orbital energies:

         1.1          2.1          3.1          4.1          5.1          6.1
    -20.565058    -1.352731    -0.717101    -0.584207     0.101638     0.120716

         1.2          2.2          3.2
     -0.510407     0.145276     0.480378

 HOMO      1.2    -0.510407 =     -13.8889eV
 LUMO      5.1     0.101638 =       2.7657eV
 LUMO-HOMO         0.612045 =      16.6546eV


 **********************************************************************************************************************************
 DATASETS  * FILE   NREC   LENGTH (MB)   RECORD NAMES
              1      19       51.11       500      610      700      900      950      970     1000      129      960     1100   
                                          VAR    BASINP    GEOM    SYMINP    ZMAT    AOBASIS   BASIS     P2S    ABASIS      S 
                                         1400     1410     1200     1210     1080     1600     1650     1300     1700   
                                           T        V       H0       H01     AOSYM     SMH    MOLCAS    ERIS     OPER   

              2       4        2.88       700     1000      520     2100   
                                         GEOM     BASIS   MCVARS     RHF  

 PROGRAMS   *        TOTAL        HF       INT
 CPU TIMES  *         1.01      0.26      0.65
 REAL TIME  *         1.59 SEC
 DISK USED  *       125.35 MB      
 **********************************************************************************************************************************


 PROGRAM * CCSD (Closed-shell coupled cluster)     Authors: C. Hampel, H.-J. Werner, 1991, M. Deegan, P.J. Knowles, 1992

                                  CCSD-F12 implementation by  H.-J. Werner, 2007

                   Density fitting integral evaluation by F.R. Manby, 2003,2007, G. Knizia, 2010

 Basis set AUG-CC-PVTZ/JKFIT generated.  Number of basis functions:   196 
 Basis set CC-PVTZ-F12/OPTRI generated.  Number of basis functions:   157 
 Basis set AUG-CC-PVTZ/MP2FIT generated. Number of basis functions:   198 

 Convergence thresholds:  THRVAR = 1.00D-08  THRDEN = 1.00D-06

 CCSD(T)     terms to be evaluated (factor= 1.000)


 Number of core orbitals:           1 (   1   0 )
 Number of closed-shell orbitals:   4 (   3   1 )
 Number of external orbitals:      84 (  57  27 )

 Molecular orbitals read from record     2100.2  Type=RHF/CANONICAL (state 1.1)

 MP2-F12 correlation treatment (H.-J. Werner, 2006)
 ==================================================

 Using MP2-F12 with ansatz 3C(FIX)

 Using projected zeroth-order Hamiltonian (+Z)

 FOCKRIB=T FOCKRIC=T FOCKRIP=T CABSP=T CABSA=T CABSK=T CABSF=T GBC=F EBC=F DMAT=T NOFIK=T NOPAO=1 SOLVE=-1  USEPAO=0
 EXCH_A= T EXCH_B= F EXCH_C= F EXCH_P= F
 
 Geminal basis:    OPTFULL  GEM_TYPE=SLATER  BETA=1.0  NGEM=6

 Optimizing Gaussian exponents for each gem_beta

 Geminal optimization for beta= 1.0000
 Weight function:   m=0, omega= 1.4646

 Augmented Hessian optimization of geminal fit. Trust ratio= 0.40000
 Convergence reached after   2 iterations. Final gradient= 8.41D-16, Step= 4.29D-06, Delta= 1.28D-09
 
 Alpha:                 0.19532     0.81920     2.85917     9.50073    35.69989   197.79328
 Coeff:                 0.27070     0.30552     0.18297     0.10986     0.06810     0.04224
 

 Symmetry turned off. Reference energy:        -76.063244149409

 All pairs explicitly correlated. Number of r12-pairs:           10

 Excluding core orbitals from MO domains
 
 AO(A)-basis ORBITAL           loaded. Number of functions:      89
 RI(R)-basis CC-PVTZ-F12/OPTRI loaded. Number of functions:     157
 DF-basis AUG-CC-PVTZ/JKFIT    loaded. Number of functions:     196

 Screening thresholds:   THRAO=  1.00D-10  THRMO=  1.00D-09  THRPROD=  1.00D-09
                         THRSW=  1.00D-05  THROV=  1.00D-12  THRAOF12=   1.00D-08

 CPU time for Fock operators                      1.07 sec
 
 Construction of ABS:
 Smallest eigenvalue of S          7.35E-04  (threshold= 1.00E-08)
 Ratio eigmin/eigmax               1.23E-04  (threshold= 1.00E-09)
 Smallest eigenvalue of S kept     7.35E-04  (threshold= 7.35E-04, 0 functions deleted, 157 kept)
 
 Construction of CABS:
 Smallest eigenvalue of S          1.81E-06  (threshold= 1.00E-08)
 Ratio eigmin/eigmax               1.81E-06  (threshold= 1.00E-09)
 Smallest eigenvalue of S kept     1.81E-06  (threshold= 1.81E-06, 0 functions deleted, 157 kept)
 
 CPU time for CABS singles                        0.01 sec

 CABS-singles contribution of  -0.00100969 patched into reference energy.
 New reference energy         -76.06425384
 
 AO(A)-basis ORBITAL           loaded. Number of functions:      89
 RI(R)-basis CC-PVTZ-F12/OPTRI loaded. Number of functions:     157
 DF-basis AUG-CC-PVTZ/MP2FIT   loaded. Number of functions:     198

 Screening thresholds:   THRAO=  1.00D-10  THRMO=  1.00D-09  THRPROD=  1.00D-09
                         THRSW=  1.00D-05  THROV=  1.00D-12  THRAOF12=   1.00D-08

 CPU time for 3-index integral evaluation         0.55 sec
 CPU time for first  half transformation          0.04 sec ( 4409.0 MFLOP/sec)
 CPU time for second half transformation          0.01 sec (  493.4 MFLOP/sec)
 CPU time for fitting                             0.01 sec ( 8185.8 MFLOP/sec)
 CPU time for assembly                            0.01 sec (53512.5 MFLOP/sec)
 CPU time for tranop_f12                          0.04 sec (16298.2 MFLOP/sec)
 CPU time for f12 integrals (total)               1.53 sec, Elapsed time:      1.57 sec
 CPU time for f12 matrices (total)                0.01 sec, Elapsed time:      0.01 sec

 Diagonal F12 approximation with fixed coefficients:  TSING= 0.500,  TTRIP= 0.250 (scaled by -1/beta)

 DF-MP2-F12 energy corrections:
 ==============================
 Approx.                                    Singlet             Triplet             Total
 DF-MP2-F12/3*C(DX,FIX)                -0.025267129236     -0.003022613321     -0.028289742558
 DF-MP2-F12/3*C(FIX)                   -0.023468236675     -0.002731860043     -0.026200096718
 DF-MP2-F12/3C(FIX)                    -0.023391471324     -0.002827975247     -0.026219446571

 DF-MP2-F12 correlation energies:
 ================================
 Approx.                                    Singlet             Triplet             Ecorr            Total Energy
 DF-MP2                                -0.173899956043     -0.099223089363     -0.273123045407    -76.337376885214
 DF-MP2-F12/3*C(DX,FIX)                -0.199167085279     -0.102245702685     -0.301412787964    -76.365666627771
 DF-MP2-F12/3*C(FIX)                   -0.197368192719     -0.101954949406     -0.299323142125    -76.363576981932
 DF-MP2-F12/3C(FIX)                    -0.197291427367     -0.102051064611     -0.299342491978    -76.363596331785

 SCS-DF-MP2 energies (F_SING= 1.20000  F_TRIP= 0.62222  F_PARALLEL= 0.33333):
 ============================================================================
 SCS-DF-MP2                            -0.270418758411    -76.334672598219
 SCS-DF-MP2-F12/3*C(DX,FIX)            -0.302620050672    -76.366873890480
 SCS-DF-MP2-F12/3*C(FIX)               -0.300280466449    -76.364534306256
 SCS-DF-MP2-F12/3C(FIX)                -0.300248153043    -76.364501992850

 Symmetry restored.
 Symmetry transformation completed.

 Number of N-1 electron functions:               4
 Number of N-2 electron functions:              10
 Number of singly external CSFs:               198
 Number of doubly external CSFs:             29292
 Total number of CSFs:                       29491

 Length of J-op  integral file:               8.97 MB
 Length of K-op  integral file:              13.62 MB
 Length of 3-ext integral record:             0.00 MB

 Memory could be reduced to 2.37 Mwords without degradation in triples

 Integral transformation finished. Total CPU:   0.05 sec, npass=  1  Memory used:   0.62 MW

 Reference energy:                    -76.06425384

 Adding F12 terms to K(Cij), methodcc=6,  factor= 1.0

 ITER.      SQ.NORM     CORR.ENERGY   TOTAL ENERGY   ENERGY CHANGE        DEN1      VAR(S)    VAR(P)  DIIS     TIME  TIME/IT
   1      1.06151941    -0.27347311   -76.33772695    -0.00030745     0.00547507  0.72D-03  0.96D-03  1  1     2.90     0.07
   2      1.06473884    -0.27320974   -76.33746358     0.00026337    -0.00451730  0.13D-04  0.10D-03  2  2     2.96     0.07
   3      1.06586594    -0.27333482   -76.33758866    -0.00012508    -0.00077995  0.84D-05  0.65D-05  3  3     3.02     0.07
   4      1.06637789    -0.27335585   -76.33760969    -0.00002103    -0.00034073  0.41D-06  0.51D-06  4  4     3.09     0.07
   5      1.06646482    -0.27335427   -76.33760811     0.00000158    -0.00001894  0.12D-06  0.31D-07  5  5     3.16     0.07
   6      1.06648814    -0.27335301   -76.33760685     0.00000126    -0.00000386  0.10D-07  0.31D-08  6  6     3.23     0.07
   7      1.06649414    -0.27335265   -76.33760649     0.00000037    -0.00000138  0.86D-09  0.24D-09  6  1     3.29     0.07
   8      1.06649552    -0.27335270   -76.33760654    -0.00000006    -0.00000001  0.66D-10  0.26D-10  6  2     3.35     0.07

 Norm of t1 vector:      0.03506423      S-energy:    -0.00000011      T1 diagnostic:  0.00876606
                                                                       D1 diagnostic:  0.01749263

 Adding energy correction from Wij-K(Fij), methodcc=6  factor= 1.0
 
  CCSD correlation energy              -0.273352703300
  MP2-F12 correction (uncoupled)       -0.025097998603
  C*T doubles correction               -0.000842003612
  f12b correction                       0.004273484245


 Total CPU time for triples:      0.30 sec


 RESULTS
 =======

  Reference energy                    -76.063244149409
  F12 singles correction               -0.001009690398

 F12 singles corrections added to reference energy

  New reference energy                -76.064253839807

  F12a singlet correction              -0.023218096168
  F12a triplet correction              -0.002721906048
  F12a total correction                -0.025940002215

 F12a corrections for ansatz F12/3C(FIX) added to CCSD energy
 
  CCSD-F12a singlet pair energy        -0.208568937939
  CCSD-F12a triplet pair energy        -0.090723659567
  CCSD-F12a correlation energy         -0.299292705516

  Triples (T) contribution             -0.008727317069
  Total correlation energy             -0.308020022585

  CCSD-F12a total energy              -76.363546545323
  CCSD[T]-F12a energy                 -76.372566117895
  CCSD-T-F12a energy                  -76.372146464314
 !CCSD(T)-F12a total energy           -76.372273862392

 F12b corrections for ansatz F12/3C(FIX) added to CCSD(T)-F12a energy

  CCSD-F12b singlet pair energy        -0.204606966400
  CCSD-F12b triplet pair energy        -0.090412146861
  CCSD-F12b correlation energy         -0.295019221270

  Triples (T) contribution             -0.008727317069
  Total correlation energy             -0.303746538339

  CCSD-F12b total energy              -76.359273061078
  CCSD[T]-F12b energy                 -76.368292633650
  CCSD-T-F12b energy                  -76.367872980069
 !CCSD(T)-F12b total energy           -76.368000378147

 Timing summary (sec):

 STEP                 CPU(USER)    SYS     CPU(TOT)    WALL
 Transformation          0.06      0.04      0.10      0.09
 CCSD iterations         0.54      0.10      0.64      0.66
 Triples                 0.30      0.00      0.30      0.31
 MP2-F12                 2.76      0.06      2.82      2.82
 F12b energy             0.03      0.02      0.05      0.05

 Program statistics:

 Available memory in ccsd:                49999786
 Min. memory needed in ccsd:                145972
 Max. memory used in ccsd:                  166319
 Max. memory used in cckext:                248663 ( 9 integral passes)



 **********************************************************************************************************************************
 DATASETS  * FILE   NREC   LENGTH (MB)   RECORD NAMES
              1      20       56.61       500      610      700      900      950      970     1000      129      960     1100   
                                          VAR    BASINP    GEOM    SYMINP    ZMAT    AOBASIS   BASIS     P2S    ABASIS      S 
                                         1400     1410     1200     1210     1080     1600     1650     1300     1700     1380   
                                           T        V       H0       H01     AOSYM     SMH    MOLCAS    ERIS     OPER     JKOP   

              2       6        2.97       700     1000      520     2100     7360     7350   
                                         GEOM     BASIS   MCVARS     RHF    F12ABS    EF12   

 PROGRAMS   *        TOTAL   CCSD(T)        HF       INT
 CPU TIMES  *         4.73      3.72      0.26      0.65
 REAL TIME  *         5.58 SEC
 DISK USED  *       125.35 MB      
 **********************************************************************************************************************************

 CCSD(T)-F12/cc-pVTZ-F12 energy=    -76.368000378147

     CCSD(T)-F12        HF-SCF  
    -76.36800038    -76.06324415
 **********************************************************************************************************************************
 Molpro calculation terminated
 Variable memory released
