
 Primary working directories    : /tmp/r2518/22947.maple
 Secondary working directories  : /tmp/r2518/22947.maple
 Wavefunction directory         : /ddn/home1/r2518/wfu/
 Main file repository           : /tmp/r2518/22947.maple/

 SHA1      : d5ffa45e93fdbca01ffc919aa182cfdae0147319
 NAME      : 2015.1.35
 ARCHNAME  : linux/x86_64
 FC        : /opt/intel/composer_xe_2015.1.133/bin/intel64/ifort
 BLASLIB   : -Wl,-_start-group /opt/intel/mkl/lib/intel64/libmkl_intel_ilp64.a /opt/intel/mkl/lib/intel64/libmkl_intel_thread.a /opt/intel/mkl/lib/intel64/libmkl_core.a -Wl,-_end-group
 id        : olemiss

 Nodes     nprocs
 cn058        1

 Using customized tuning parameters: mindgm=1; mindgv=20; mindgc=4; mindgr=1; noblas=0; minvec=7
 default implementation of scratch files=df  

 memory,50,m
 nocompress;
 geomtyp=xyz
 angstrom
 geometry={
 O,0.0,0.0,-0.0657441568
 H,0.0,0.7074590973999999,0.5217905143
 H,0.0,-0.7574590974,0.5717905143
 }
 basis=cc-pVTZ-F12
 set,charge=0
 set,spin=0
 hf
 {CCSD(T)-F12}

 Variables initialized (889), CPU time= 0.00 sec
 Commands  initialized (702), CPU time= 0.01 sec, 572 directives.
 Default parameters read. Elapsed time= 0.06 sec

 Checking input...
 Passed
1


                                         ***  PROGRAM SYSTEM MOLPRO  ***
                                       Copyright, TTI GmbH Stuttgart, 2015
                                    Version 2015.1 linked Jul  9 2018 13:16:40


 **********************************************************************************************************************************
 LABEL *                                                                                 
  64 bit serial version                                                                  DATE: 28-Aug-19          TIME: 15:37:43  
 **********************************************************************************************************************************

 SHA1:             d5ffa45e93fdbca01ffc919aa182cfdae0147319
 **********************************************************************************************************************************

 Input parameters for SORTINT:

 COMPRESS =    0.000000
 C_FINAL  =    1.000000
 DEBUG    =   -1.000000
 C_SORT1  =    0.000000
 C_SEWARD =    0.000000
 THRESH   =    0.000000
 IO       =  molpro                                                          
 SPRI     =    0.000000
 SETTING GEOMTYP        =    XYZ
 ZUNIT=ANG
 

 Variable memory set to   50000000 words,  buffer space   230000 words

 SETTING BASIS          =    CC-PVTZ-F12
 SETTING CHARGE         =     0.00000000D+00                                  
 SETTING SPIN           =     0.00000000D+00                                  


 Recomputing integrals since basis changed


 Using spherical harmonics

 Library entry O      S cc-pVTZ-F12          selected for orbital group  1
 Library entry O      P cc-pVTZ-F12          selected for orbital group  1
 Library entry O      D cc-pVTZ-F12          selected for orbital group  1
 Library entry O      F cc-pVTZ-F12          selected for orbital group  1
 Library entry H      S cc-pVTZ-F12          selected for orbital group  2
 Library entry H      P cc-pVTZ-F12          selected for orbital group  2
 Library entry H      D cc-pVTZ-F12          selected for orbital group  2


 PROGRAM * SEWARD (Integral evaluation for generally contracted gaussian basis sets)     Author: Roland Lindh, 1990

 Geometry written to block  1 of record 700


 Point group  Cs  



 ATOMIC COORDINATES

 NR  ATOM    CHARGE       X              Y              Z

   1  O       8.00    0.000000000    0.000000000   -0.124238451
   2  H       1.00    0.000000000    1.336903938    0.986041166
   3  H       1.00    0.000000000   -1.431390245    1.080527473

 Bond lengths in Bohr (Angstrom)

 1-2  1.737824205  1-3  1.870919283
     ( 0.919616966)     ( 0.990047848)

 Bond angles

  2-1-3  100.20435975

 NUCLEAR CHARGE:                   10
 NUMBER OF PRIMITIVE AOS:         114
 NUMBER OF SYMMETRY AOS:          103
 NUMBER OF CONTRACTIONS:           89   (  61A'  +  28A"  )
 NUMBER OF CORE ORBITALS:           1   (   1A'  +   0A"  )
 NUMBER OF VALENCE ORBITALS:        6   (   5A'  +   1A"  )


 NUCLEAR REPULSION ENERGY    9.24045345

 Eigenvalues of metric

         1 0.208E-03 0.461E-03 0.574E-03 0.710E-03 0.790E-03 0.156E-02 0.198E-02 0.210E-02
         2 0.690E-03 0.746E-02 0.109E-01 0.446E-01 0.833E-01 0.876E-01 0.132E+00 0.186E+00


 Contracted 2-electron integrals neglected if value below      1.0D-11

        3676677. INTEGRALS WRITTEN OUT IN     898 BLOCKS ON RECORD 1290 OF FILE 1


 NUMBER OF SORTED TWO-ELECTRON INTEGRALS:    4174745.     BUFFER LENGTH:  32768
 NUMBER OF SEGMENTS:   1  SEGMENT LENGTH:    4174745      RECORD LENGTH: 524288

 Memory used in sort:       4.73 MW

 SORT1 READ     3676677. AND WROTE     3739793. INTEGRALS IN     11 RECORDS. CPU TIME:     0.11 SEC, REAL TIME:     0.15 SEC
 SORT2 READ     3739793. AND WROTE     4174745. INTEGRALS IN      1 RECORDS. CPU TIME:     0.10 SEC, REAL TIME:     0.12 SEC

 FILE SIZES:   FILE 1:    79.0 MBYTE,  FILE 4:    46.2 MBYTE,   TOTAL:    125.2 MBYTE

 OPERATOR DM      FOR CENTER  0  COORDINATES:    0.000000    0.000000    0.000000


 **********************************************************************************************************************************
 DATASETS  * FILE   NREC   LENGTH (MB)   RECORD NAMES
              1      19       51.17       500      610      700      900      950      970     1000      129      960     1100   
                                          VAR    BASINP    GEOM    SYMINP    ZMAT    AOBASIS   BASIS     P2S    ABASIS      S 
                                         1400     1410     1200     1210     1080     1600     1650     1300     1700   
                                           T        V       H0       H01     AOSYM     SMH    MOLCAS    ERIS     OPER   

 PROGRAMS   *        TOTAL       INT
 CPU TIMES  *         0.70      0.60
 REAL TIME  *         1.05 SEC
 DISK USED  *       125.48 MB      
 **********************************************************************************************************************************


 PROGRAM * RHF-SCF (CLOSED SHELL)       Authors: W. Meyer, H.-J. Werner


 NUMBER OF ELECTRONS:       5+    5-
 CONVERGENCE THRESHOLDS:    1.00E-05 (Density)    1.00E-07 (Energy)
 MAX. NUMBER OF ITERATIONS:       60
 INTERPOLATION TYPE:            DIIS
 INTERPOLATION STEPS:              2 (START)      1 (STEP)
 LEVEL SHIFTS:                  0.00 (CLOSED)  0.00 (OPEN) 



 Orbital guess generated from atomic densities. Full valence occupancy:    6   1

 Molecular orbital dump at record        2100.2

 Initial occupancy:   4   1

 ITERATION    DDIFF          GRAD             ENERGY        2-EL.EN.            DIPOLE MOMENTS         DIIS   ORB.
    1      0.000D+00      0.000D+00       -76.02295965     77.730510    0.00000   -0.06904    1.17799    0    start
    2      0.000D+00      0.137D-01       -76.05059866     74.129083    0.00000   -0.01780    0.69456    1    diag
    3      0.150D-01      0.858D-02       -76.06186914     75.716792    0.00000   -0.02607    0.81577    2    diag
    4      0.510D-02      0.813D-03       -76.06205952     75.625997    0.00000   -0.02185    0.81201    3    diag
    5      0.739D-03      0.225D-03       -76.06207995     75.640680    0.00000   -0.02010    0.81072    4    diag
    6      0.265D-03      0.447D-04       -76.06208125     75.639702    0.00000   -0.01954    0.81044    5    diag
    7      0.744D-04      0.909D-05       -76.06208131     75.639833    0.00000   -0.01939    0.81034    6    diag
    8      0.157D-04      0.165D-05       -76.06208132     75.639822    0.00000   -0.01938    0.81031    7    diag
    9      0.301D-05      0.201D-06       -76.06208132     75.639808    0.00000   -0.01937    0.81031    0    orth

 Final occupancy:   4   1

 !RHF STATE 1.1 Energy                -76.062081315814
 Nuclear energy                         9.24045345
 One-electron energy                 -123.12243873
 Two-electron energy                   37.81990396
 Virial quotient                       -1.00054814
 !RHF STATE 1.1 Dipole moment           0.00000000    -0.01937417     0.81030779
 Dipole moment /Debye                   0.00000000    -0.04924101     2.05946206

 Orbital energies:

         1.1          2.1          3.1          4.1          5.1          6.1
    -20.566027    -1.358654    -0.711072    -0.593497     0.099775     0.122041

         1.2          2.2          3.2
     -0.512065     0.145077     0.483912

 HOMO      1.2    -0.512065 =     -13.9340eV
 LUMO      5.1     0.099775 =       2.7150eV
 LUMO-HOMO         0.611840 =      16.6490eV


 **********************************************************************************************************************************
 DATASETS  * FILE   NREC   LENGTH (MB)   RECORD NAMES
              1      19       51.17       500      610      700      900      950      970     1000      129      960     1100   
                                          VAR    BASINP    GEOM    SYMINP    ZMAT    AOBASIS   BASIS     P2S    ABASIS      S 
                                         1400     1410     1200     1210     1080     1600     1650     1300     1700   
                                           T        V       H0       H01     AOSYM     SMH    MOLCAS    ERIS     OPER   

              2       4        2.88       700     1000      520     2100   
                                         GEOM     BASIS   MCVARS     RHF  

 PROGRAMS   *        TOTAL        HF       INT
 CPU TIMES  *         0.98      0.28      0.60
 REAL TIME  *         1.41 SEC
 DISK USED  *       125.48 MB      
 **********************************************************************************************************************************


 PROGRAM * CCSD (Closed-shell coupled cluster)     Authors: C. Hampel, H.-J. Werner, 1991, M. Deegan, P.J. Knowles, 1992

                                  CCSD-F12 implementation by  H.-J. Werner, 2007

                   Density fitting integral evaluation by F.R. Manby, 2003,2007, G. Knizia, 2010

 Basis set AUG-CC-PVTZ/JKFIT generated.  Number of basis functions:   196 
 Basis set CC-PVTZ-F12/OPTRI generated.  Number of basis functions:   157 
 Basis set AUG-CC-PVTZ/MP2FIT generated. Number of basis functions:   198 

 Convergence thresholds:  THRVAR = 1.00D-08  THRDEN = 1.00D-06

 CCSD(T)     terms to be evaluated (factor= 1.000)


 Number of core orbitals:           1 (   1   0 )
 Number of closed-shell orbitals:   4 (   3   1 )
 Number of external orbitals:      84 (  57  27 )

 Molecular orbitals read from record     2100.2  Type=RHF/CANONICAL (state 1.1)

 MP2-F12 correlation treatment (H.-J. Werner, 2006)
 ==================================================

 Using MP2-F12 with ansatz 3C(FIX)

 Using projected zeroth-order Hamiltonian (+Z)

 FOCKRIB=T FOCKRIC=T FOCKRIP=T CABSP=T CABSA=T CABSK=T CABSF=T GBC=F EBC=F DMAT=T NOFIK=T NOPAO=1 SOLVE=-1  USEPAO=0
 EXCH_A= T EXCH_B= F EXCH_C= F EXCH_P= F
 
 Geminal basis:    OPTFULL  GEM_TYPE=SLATER  BETA=1.0  NGEM=6

 Optimizing Gaussian exponents for each gem_beta

 Geminal optimization for beta= 1.0000
 Weight function:   m=0, omega= 1.4646

 Augmented Hessian optimization of geminal fit. Trust ratio= 0.40000
 Convergence reached after   2 iterations. Final gradient= 8.41D-16, Step= 4.29D-06, Delta= 1.28D-09
 
 Alpha:                 0.19532     0.81920     2.85917     9.50073    35.69989   197.79328
 Coeff:                 0.27070     0.30552     0.18297     0.10986     0.06810     0.04224
 

 Symmetry turned off. Reference energy:        -76.062081315814

 All pairs explicitly correlated. Number of r12-pairs:           10

 Excluding core orbitals from MO domains
 
 AO(A)-basis ORBITAL           loaded. Number of functions:      89
 RI(R)-basis CC-PVTZ-F12/OPTRI loaded. Number of functions:     157
 DF-basis AUG-CC-PVTZ/JKFIT    loaded. Number of functions:     196

 Screening thresholds:   THRAO=  1.00D-10  THRMO=  1.00D-09  THRPROD=  1.00D-09
                         THRSW=  1.00D-05  THROV=  1.00D-12  THRAOF12=   1.00D-08

 CPU time for Fock operators                      1.07 sec
 
 Construction of ABS:
 Smallest eigenvalue of S          7.07E-04  (threshold= 1.00E-08)
 Ratio eigmin/eigmax               1.17E-04  (threshold= 1.00E-09)
 Smallest eigenvalue of S kept     7.07E-04  (threshold= 7.07E-04, 0 functions deleted, 157 kept)
 
 Construction of CABS:
 Smallest eigenvalue of S          1.73E-06  (threshold= 1.00E-08)
 Ratio eigmin/eigmax               1.73E-06  (threshold= 1.00E-09)
 Smallest eigenvalue of S kept     1.73E-06  (threshold= 1.73E-06, 0 functions deleted, 157 kept)
 
 CPU time for CABS singles                        0.01 sec

 CABS-singles contribution of  -0.00102338 patched into reference energy.
 New reference energy         -76.06310470
 
 AO(A)-basis ORBITAL           loaded. Number of functions:      89
 RI(R)-basis CC-PVTZ-F12/OPTRI loaded. Number of functions:     157
 DF-basis AUG-CC-PVTZ/MP2FIT   loaded. Number of functions:     198

 Screening thresholds:   THRAO=  1.00D-10  THRMO=  1.00D-09  THRPROD=  1.00D-09
                         THRSW=  1.00D-05  THROV=  1.00D-12  THRAOF12=   1.00D-08

 CPU time for 3-index integral evaluation         0.55 sec
 CPU time for first  half transformation          0.02 sec ( 8818.0 MFLOP/sec)
 CPU time for fitting                             0.01 sec ( 8185.8 MFLOP/sec)
 CPU time for assembly                            0.02 sec (26756.3 MFLOP/sec)
 CPU time for tranop_f12                          0.03 sec (21731.0 MFLOP/sec)
 CPU time for f12 integrals (total)               1.51 sec, Elapsed time:      1.56 sec
 CPU time for f12 matrices (total)                0.01 sec, Elapsed time:      0.02 sec

 Diagonal F12 approximation with fixed coefficients:  TSING= 0.500,  TTRIP= 0.250 (scaled by -1/beta)

 DF-MP2-F12 energy corrections:
 ==============================
 Approx.                                    Singlet             Triplet             Total
 DF-MP2-F12/3*C(DX,FIX)                -0.025284843153     -0.003030137474     -0.028314980628
 DF-MP2-F12/3*C(FIX)                   -0.023476384519     -0.002738486297     -0.026214870817
 DF-MP2-F12/3C(FIX)                    -0.023397205865     -0.002834578284     -0.026231784149

 DF-MP2-F12 correlation energies:
 ================================
 Approx.                                    Singlet             Triplet             Ecorr            Total Energy
 DF-MP2                                -0.173854439579     -0.099249929066     -0.273104368645    -76.336209068591
 DF-MP2-F12/3*C(DX,FIX)                -0.199139282732     -0.102280066540     -0.301419349272    -76.364524049219
 DF-MP2-F12/3*C(FIX)                   -0.197330824098     -0.101988415363     -0.299319239462    -76.362423939408
 DF-MP2-F12/3C(FIX)                    -0.197251645444     -0.102084507350     -0.299336152794    -76.362440852740

 SCS-DF-MP2 energies (F_SING= 1.20000  F_TRIP= 0.62222  F_PARALLEL= 0.33333):
 ============================================================================
 SCS-DF-MP2                            -0.270380838914    -76.333485538860
 SCS-DF-MP2-F12/3*C(DX,FIX)            -0.302608069570    -76.365712769516
 SCS-DF-MP2-F12/3*C(FIX)               -0.300256447366    -76.363361147313
 SCS-DF-MP2-F12/3C(FIX)                -0.300221223551    -76.363325923497

 Symmetry restored.
 Symmetry transformation completed.

 Number of N-1 electron functions:               4
 Number of N-2 electron functions:              10
 Number of singly external CSFs:               198
 Number of doubly external CSFs:             29292
 Total number of CSFs:                       29491

 Length of J-op  integral file:               8.97 MB
 Length of K-op  integral file:              13.62 MB
 Length of 3-ext integral record:             0.00 MB

 Memory could be reduced to 2.37 Mwords without degradation in triples

 Integral transformation finished. Total CPU:   0.06 sec, npass=  1  Memory used:   0.62 MW

 Reference energy:                    -76.06310470

 Adding F12 terms to K(Cij), methodcc=6,  factor= 1.0

 ITER.      SQ.NORM     CORR.ENERGY   TOTAL ENERGY   ENERGY CHANGE        DEN1      VAR(S)    VAR(P)  DIIS     TIME  TIME/IT
   1      1.06139062    -0.27345784   -76.33656254    -0.00031129     0.00546120  0.72D-03  0.95D-03  1  1     2.91     0.07
   2      1.06459438    -0.27318773   -76.33629243     0.00027011    -0.00450640  0.13D-04  0.10D-03  2  2     2.97     0.07
   3      1.06571229    -0.27331122   -76.33641592    -0.00012349    -0.00077360  0.84D-05  0.65D-05  3  3     3.05     0.07
   4      1.06622168    -0.27333196   -76.33643666    -0.00002074    -0.00033958  0.41D-06  0.51D-06  4  4     3.11     0.07
   5      1.06630761    -0.27333034   -76.33643504     0.00000162    -0.00001878  0.11D-06  0.31D-07  5  5     3.17     0.07
   6      1.06633055    -0.27332908   -76.33643378     0.00000126    -0.00000375  0.99D-08  0.30D-08  6  6     3.25     0.08
   7      1.06633644    -0.27332871   -76.33643341     0.00000037    -0.00000136  0.84D-09  0.24D-09  6  1     3.32     0.08
   8      1.06633780    -0.27332876   -76.33643346    -0.00000006    -0.00000001  0.61D-10  0.25D-10  6  2     3.38     0.08

 Norm of t1 vector:      0.03507291      S-energy:    -0.00000011      T1 diagnostic:  0.00876823
                                                                       D1 diagnostic:  0.01753798

 Adding energy correction from Wij-K(Fij), methodcc=6  factor= 1.0
 
  CCSD correlation energy              -0.273328761244
  MP2-F12 correction (uncoupled)       -0.025111635575
  C*T doubles correction               -0.000843111564
  f12b correction                       0.004269741754


 Total CPU time for triples:      0.29 sec


 RESULTS
 =======

  Reference energy                    -76.062081315814
  F12 singles correction               -0.001023384132

 F12 singles corrections added to reference energy

  New reference energy                -76.063104699946

  F12a singlet correction              -0.023226403666
  F12a triplet correction              -0.002728343474
  F12a total correction                -0.025954747140

 F12a corrections for ansatz F12/3C(FIX) added to CCSD energy
 
  CCSD-F12a singlet pair energy        -0.208498852598
  CCSD-F12a triplet pair energy        -0.090784549466
  CCSD-F12a correlation energy         -0.299283508383

  Triples (T) contribution             -0.008714632704
  Total correlation energy             -0.307998141087

  CCSD-F12a total energy              -76.362388208329
  CCSD[T]-F12a energy                 -76.371394638283
  CCSD-T-F12a energy                  -76.370975273798
 !CCSD(T)-F12a total energy           -76.371102841033

 F12b corrections for ansatz F12/3C(FIX) added to CCSD(T)-F12a energy

  CCSD-F12b singlet pair energy        -0.204540909087
  CCSD-F12b triplet pair energy        -0.090472751222
  CCSD-F12b correlation energy         -0.295013766629

  Triples (T) contribution             -0.008714632704
  Total correlation energy             -0.303728399332

  CCSD-F12b total energy              -76.358118466575
  CCSD[T]-F12b energy                 -76.367124896528
  CCSD-T-F12b energy                  -76.366705532043
 !CCSD(T)-F12b total energy           -76.366833099278

 Timing summary (sec):

 STEP                 CPU(USER)    SYS     CPU(TOT)    WALL
 Transformation          0.08      0.02      0.10      0.09
 CCSD iterations         0.56      0.08      0.64      0.66
 Triples                 0.29      0.01      0.30      0.30
 MP2-F12                 2.74      0.08      2.82      2.82
 F12b energy             0.04      0.02      0.06      0.06

 Program statistics:

 Available memory in ccsd:                49999786
 Min. memory needed in ccsd:                145972
 Max. memory used in ccsd:                  166319
 Max. memory used in cckext:                248663 ( 9 integral passes)



 **********************************************************************************************************************************
 DATASETS  * FILE   NREC   LENGTH (MB)   RECORD NAMES
              1      20       56.67       500      610      700      900      950      970     1000      129      960     1100   
                                          VAR    BASINP    GEOM    SYMINP    ZMAT    AOBASIS   BASIS     P2S    ABASIS      S 
                                         1400     1410     1200     1210     1080     1600     1650     1300     1700     1380   
                                           T        V       H0       H01     AOSYM     SMH    MOLCAS    ERIS     OPER     JKOP   

              2       6        2.97       700     1000      520     2100     7360     7350   
                                         GEOM     BASIS   MCVARS     RHF    F12ABS    EF12   

 PROGRAMS   *        TOTAL   CCSD(T)        HF       INT
 CPU TIMES  *         4.72      3.74      0.28      0.60
 REAL TIME  *         5.40 SEC
 DISK USED  *       125.48 MB      
 **********************************************************************************************************************************

 CCSD(T)-F12/cc-pVTZ-F12 energy=    -76.366833099278

     CCSD(T)-F12        HF-SCF  
    -76.36683310    -76.06208132
 **********************************************************************************************************************************
 Molpro calculation terminated
 Variable memory released
