
 Primary working directories    : /tmp/r2518/14834.maple
 Secondary working directories  : /tmp/r2518/14834.maple
 Wavefunction directory         : /ddn/home1/r2518/wfu/
 Main file repository           : /tmp/r2518/14834.maple/

 SHA1      : d5ffa45e93fdbca01ffc919aa182cfdae0147319
 NAME      : 2015.1.35
 ARCHNAME  : linux/x86_64
 FC        : /opt/intel/composer_xe_2015.1.133/bin/intel64/ifort
 BLASLIB   : -Wl,-_start-group /opt/intel/mkl/lib/intel64/libmkl_intel_ilp64.a /opt/intel/mkl/lib/intel64/libmkl_intel_thread.a /opt/intel/mkl/lib/intel64/libmkl_core.a -Wl,-_end-group
 id        : olemiss

 Nodes     nprocs
 cn059        1

 Using customized tuning parameters: mindgm=1; mindgv=20; mindgc=4; mindgr=1; noblas=0; minvec=7
 default implementation of scratch files=df  

 memory,50,m
 nocompress;
 geomtyp=xyz
 angstrom
 geometry={
 O,0.0,0.0,-0.0657441568
 H,0.0,0.7574590974000001,0.5217905143000001
 H,0.05,-0.7574590974,0.5217905143
 }
 basis=cc-pVTZ-F12
 set,charge=0
 set,spin=0
 hf
 {CCSD(T)-F12}

 Variables initialized (889), CPU time= 0.01 sec
 Commands  initialized (702), CPU time= 0.01 sec, 572 directives.
 Default parameters read. Elapsed time= 0.06 sec

 Checking input...
 Passed
1


                                         ***  PROGRAM SYSTEM MOLPRO  ***
                                       Copyright, TTI GmbH Stuttgart, 2015
                                    Version 2015.1 linked Jul  9 2018 13:16:40


 **********************************************************************************************************************************
 LABEL *                                                                                 
  64 bit serial version                                                                  DATE: 24-Aug-19          TIME: 16:52:50  
 **********************************************************************************************************************************

 SHA1:             d5ffa45e93fdbca01ffc919aa182cfdae0147319
 **********************************************************************************************************************************

 Input parameters for SORTINT:

 COMPRESS =    0.000000
 C_FINAL  =    1.000000
 DEBUG    =   -1.000000
 C_SORT1  =    0.000000
 C_SEWARD =    0.000000
 THRESH   =    0.000000
 IO       =  molpro                                                          
 SPRI     =    0.000000
 SETTING GEOMTYP        =    XYZ
 ZUNIT=ANG
 

 Variable memory set to   50000000 words,  buffer space   230000 words

 SETTING BASIS          =    CC-PVTZ-F12
 SETTING CHARGE         =     0.00000000D+00                                  
 SETTING SPIN           =     0.00000000D+00                                  


 Recomputing integrals since basis changed


 Using spherical harmonics

 Library entry O      S cc-pVTZ-F12          selected for orbital group  1
 Library entry O      P cc-pVTZ-F12          selected for orbital group  1
 Library entry O      D cc-pVTZ-F12          selected for orbital group  1
 Library entry O      F cc-pVTZ-F12          selected for orbital group  1
 Library entry H      S cc-pVTZ-F12          selected for orbital group  2
 Library entry H      P cc-pVTZ-F12          selected for orbital group  2
 Library entry H      D cc-pVTZ-F12          selected for orbital group  2


 PROGRAM * SEWARD (Integral evaluation for generally contracted gaussian basis sets)     Author: Roland Lindh, 1990

 Geometry written to block  1 of record 700


 Point group  C1  



 ATOMIC COORDINATES

 NR  ATOM    CHARGE       X              Y              Z

   1  O       8.00    0.000000000    0.000000000   -0.124238451
   2  H       1.00    0.000000000    1.431390245    0.986041166
   3  H       1.00    0.094486306   -1.431390245    0.986041166

 Bond lengths in Bohr (Angstrom)

 1-2  1.811518385  1-3  1.813980850
     ( 0.958614247)     ( 0.959917327)

 Bond angles

  2-1-3  104.38105233

 NUCLEAR CHARGE:                   10
 NUMBER OF PRIMITIVE AOS:         114
 NUMBER OF SYMMETRY AOS:          103
 NUMBER OF CONTRACTIONS:           89   (  89A   )
 NUMBER OF CORE ORBITALS:           1   (   1A   )
 NUMBER OF VALENCE ORBITALS:        6   (   6A   )


 NUCLEAR REPULSION ENERGY    9.17549536


 Eigenvalues of metric

         1 0.215E-03 0.452E-03 0.574E-03 0.692E-03 0.711E-03 0.796E-03 0.158E-02 0.202E-02


 Contracted 2-electron integrals neglected if value below      1.0D-11

        5883679. INTEGRALS WRITTEN OUT IN    1437 BLOCKS ON RECORD 1290 OF FILE 1


 NUMBER OF SORTED TWO-ELECTRON INTEGRALS:    8022015.     BUFFER LENGTH:  32768
 NUMBER OF SEGMENTS:   1  SEGMENT LENGTH:    8022015      RECORD LENGTH: 524288

 Memory used in sort:       8.58 MW

 SORT1 READ     5883679. AND WROTE     5883679. INTEGRALS IN     17 RECORDS. CPU TIME:     0.20 SEC, REAL TIME:     0.25 SEC
 SORT2 READ     5883679. AND WROTE     8022015. INTEGRALS IN      1 RECORDS. CPU TIME:     0.15 SEC, REAL TIME:     0.21 SEC

 FILE SIZES:   FILE 1:   114.4 MBYTE,  FILE 4:    71.3 MBYTE,   TOTAL:    185.7 MBYTE

 OPERATOR DM      FOR CENTER  0  COORDINATES:    0.000000    0.000000    0.000000


 **********************************************************************************************************************************
 DATASETS  * FILE   NREC   LENGTH (MB)   RECORD NAMES
              1      19       70.03       500      610      700      900      950      970     1000      129      960     1100   
                                          VAR    BASINP    GEOM    SYMINP    ZMAT    AOBASIS   BASIS     P2S    ABASIS      S 
                                         1400     1410     1200     1210     1080     1600     1650     1300     1700   
                                           T        V       H0       H01     AOSYM     SMH    MOLCAS    ERIS     OPER   

 PROGRAMS   *        TOTAL       INT
 CPU TIMES  *         0.91      0.81
 REAL TIME  *         1.64 SEC
 DISK USED  *       186.03 MB      
 **********************************************************************************************************************************


 PROGRAM * RHF-SCF (CLOSED SHELL)       Authors: W. Meyer, H.-J. Werner


 NUMBER OF ELECTRONS:       5+    5-    SPACE SYMMETRY=1    SPIN SYMMETRY: Singlet 
 CONVERGENCE THRESHOLDS:    1.00E-05 (Density)    1.00E-07 (Energy)
 MAX. NUMBER OF ITERATIONS:       60
 INTERPOLATION TYPE:            DIIS
 INTERPOLATION STEPS:              2 (START)      1 (STEP)
 LEVEL SHIFTS:                  0.00 (CLOSED)  0.00 (OPEN) 



 Orbital guess generated from atomic densities. Full valence occupancy:    7

 Molecular orbital dump at record        2100.2

 Initial occupancy:   5

 ITERATION    DDIFF          GRAD             ENERGY        2-EL.EN.            DIPOLE MOMENTS         DIIS   ORB.
    1      0.000D+00      0.000D+00       -76.02693263     77.649493    0.04836   -0.00042    1.13625    0    start
    2      0.000D+00      0.106D-01       -76.05387874     74.063140    0.02876    0.00017    0.67614    1    diag
    3      0.112D-01      0.661D-02       -76.06489669     75.642453    0.03361    0.00011    0.79004    2    diag
    4      0.382D-02      0.625D-03       -76.06508152     75.551362    0.03346    0.00018    0.78643    3    diag
    5      0.556D-03      0.169D-03       -76.06510004     75.565358    0.03340    0.00021    0.78512    4    diag
    6      0.193D-03      0.324D-04       -76.06510115     75.564439    0.03339    0.00022    0.78484    5    diag
    7      0.546D-04      0.636D-05       -76.06510120     75.564582    0.03338    0.00023    0.78474    6    diag
    8      0.116D-04      0.126D-05       -76.06510120     75.564573    0.03338    0.00023    0.78470    7    diag
    9      0.216D-05      0.158D-06       -76.06510120     75.564560    0.03338    0.00023    0.78469    0    orth

 Final occupancy:   5

 !RHF STATE 1.1 Energy                -76.065101200075
 Nuclear energy                         9.17549536
 One-electron energy                 -123.02287634
 Two-electron energy                   37.78227979
 Virial quotient                       -1.00102873
 !RHF STATE 1.1 Dipole moment           0.03338175     0.00022768     0.78469400
 Dipole moment /Debye                   0.08484239     0.00057866     1.99436257

 Orbital energies:

         1.1          2.1          3.1          4.1          5.1          6.1          7.1
    -20.565308    -1.352021    -0.716543    -0.584895    -0.510390     0.101845     0.120756

 HOMO      5.1    -0.510390 =     -13.8884eV
 LUMO      6.1     0.101845 =       2.7713eV
 LUMO-HOMO         0.612235 =      16.6598eV


 **********************************************************************************************************************************
 DATASETS  * FILE   NREC   LENGTH (MB)   RECORD NAMES
              1      19       70.03       500      610      700      900      950      970     1000      129      960     1100   
                                          VAR    BASINP    GEOM    SYMINP    ZMAT    AOBASIS   BASIS     P2S    ABASIS      S 
                                         1400     1410     1200     1210     1080     1600     1650     1300     1700   
                                           T        V       H0       H01     AOSYM     SMH    MOLCAS    ERIS     OPER   

              2       4        2.95       700     1000      520     2100   
                                         GEOM     BASIS   MCVARS     RHF  

 PROGRAMS   *        TOTAL        HF       INT
 CPU TIMES  *         1.65      0.74      0.81
 REAL TIME  *         2.52 SEC
 DISK USED  *       186.03 MB      
 **********************************************************************************************************************************


 PROGRAM * CCSD (Closed-shell coupled cluster)     Authors: C. Hampel, H.-J. Werner, 1991, M. Deegan, P.J. Knowles, 1992

                                  CCSD-F12 implementation by  H.-J. Werner, 2007

                   Density fitting integral evaluation by F.R. Manby, 2003,2007, G. Knizia, 2010

 Basis set AUG-CC-PVTZ/JKFIT generated.  Number of basis functions:   196 
 Basis set CC-PVTZ-F12/OPTRI generated.  Number of basis functions:   157 
 Basis set AUG-CC-PVTZ/MP2FIT generated. Number of basis functions:   198 

 Convergence thresholds:  THRVAR = 1.00D-08  THRDEN = 1.00D-06

 CCSD(T)     terms to be evaluated (factor= 1.000)


 Number of core orbitals:           1 (   1 )
 Number of closed-shell orbitals:   4 (   4 )
 Number of external orbitals:      84 (  84 )

 Molecular orbitals read from record     2100.2  Type=RHF/CANONICAL (state 1.1)

 MP2-F12 correlation treatment (H.-J. Werner, 2006)
 ==================================================

 Using MP2-F12 with ansatz 3C(FIX)

 Using projected zeroth-order Hamiltonian (+Z)

 FOCKRIB=T FOCKRIC=T FOCKRIP=T CABSP=T CABSA=T CABSK=T CABSF=T GBC=F EBC=F DMAT=T NOFIK=T NOPAO=1 SOLVE=-1  USEPAO=0
 EXCH_A= T EXCH_B= F EXCH_C= F EXCH_P= F
 
 Geminal basis:    OPTFULL  GEM_TYPE=SLATER  BETA=1.0  NGEM=6

 Optimizing Gaussian exponents for each gem_beta

 Geminal optimization for beta= 1.0000
 Weight function:   m=0, omega= 1.4646

 Augmented Hessian optimization of geminal fit. Trust ratio= 0.40000
 Convergence reached after   2 iterations. Final gradient= 8.41D-16, Step= 4.29D-06, Delta= 1.28D-09
 
 Alpha:                 0.19532     0.81920     2.85917     9.50073    35.69989   197.79328
 Coeff:                 0.27070     0.30552     0.18297     0.10986     0.06810     0.04224
 

 All pairs explicitly correlated. Number of r12-pairs:           10

 Excluding core orbitals from MO domains
 
 AO(A)-basis ORBITAL           loaded. Number of functions:      89
 RI(R)-basis CC-PVTZ-F12/OPTRI loaded. Number of functions:     157
 DF-basis AUG-CC-PVTZ/JKFIT    loaded. Number of functions:     196

 Screening thresholds:   THRAO=  1.00D-10  THRMO=  1.00D-09  THRPROD=  1.00D-09
                         THRSW=  1.00D-05  THROV=  1.00D-12  THRAOF12=   1.00D-08

 CPU time for Fock operators                      0.42 sec
 
 Construction of ABS:
 Smallest eigenvalue of S          7.85E-04  (threshold= 1.00E-08)
 Ratio eigmin/eigmax               1.31E-04  (threshold= 1.00E-09)
 Smallest eigenvalue of S kept     7.85E-04  (threshold= 7.85E-04, 0 functions deleted, 157 kept)
 
 Construction of CABS:
 Smallest eigenvalue of S          1.86E-06  (threshold= 1.00E-08)
 Ratio eigmin/eigmax               1.86E-06  (threshold= 1.00E-09)
 Smallest eigenvalue of S kept     1.86E-06  (threshold= 1.86E-06, 0 functions deleted, 157 kept)
 
 CPU time for CABS singles                        0.01 sec

 CABS-singles contribution of  -0.00100716 patched into reference energy.
 New reference energy         -76.06610836
 
 AO(A)-basis ORBITAL           loaded. Number of functions:      89
 RI(R)-basis CC-PVTZ-F12/OPTRI loaded. Number of functions:     157
 DF-basis AUG-CC-PVTZ/MP2FIT   loaded. Number of functions:     198

 Screening thresholds:   THRAO=  1.00D-10  THRMO=  1.00D-09  THRPROD=  1.00D-09
                         THRSW=  1.00D-05  THROV=  1.00D-12  THRAOF12=   1.00D-08

 CPU time for 3-index integral evaluation         0.54 sec
 CPU time for first  half transformation          0.02 sec ( 8818.0 MFLOP/sec)
 CPU time for sorting                             0.01 sec
 CPU time for fitting                             0.01 sec ( 8185.8 MFLOP/sec)
 CPU time for assembly                            0.02 sec (26756.3 MFLOP/sec)
 CPU time for tranop_f12                          0.04 sec (16298.2 MFLOP/sec)
 CPU time for f12 integrals (total)               0.69 sec, Elapsed time:      0.72 sec
 CPU time for f12 matrices (total)                0.01 sec, Elapsed time:      0.02 sec

 Diagonal F12 approximation with fixed coefficients:  TSING= 0.500,  TTRIP= 0.250 (scaled by -1/beta)

 DF-MP2-F12 energy corrections:
 ==============================
 Approx.                                    Singlet             Triplet             Total
 DF-MP2-F12/3*C(DX,FIX)                -0.025258933095     -0.003021499131     -0.028280432226
 DF-MP2-F12/3*C(FIX)                   -0.023461924801     -0.002731118237     -0.026193043037
 DF-MP2-F12/3C(FIX)                    -0.023386052052     -0.002827340754     -0.026213392806

 DF-MP2-F12 correlation energies:
 ================================
 Approx.                                    Singlet             Triplet             Ecorr            Total Energy
 DF-MP2                                -0.173891043065     -0.099243947271     -0.273134990336    -76.339243349368
 DF-MP2-F12/3*C(DX,FIX)                -0.199149976161     -0.102265446402     -0.301415422562    -76.367523781594
 DF-MP2-F12/3*C(FIX)                   -0.197352967866     -0.101975065508     -0.299328033373    -76.365436392405
 DF-MP2-F12/3C(FIX)                    -0.197277095117     -0.102071288025     -0.299348383142    -76.365456742173

 SCS-DF-MP2 energies (F_SING= 1.20000  F_TRIP= 0.62222  F_PARALLEL= 0.33333):
 ============================================================================
 SCS-DF-MP2                            -0.270421041091    -76.336529400123
 SCS-DF-MP2-F12/3*C(DX,FIX)            -0.302611804709    -76.368720163741
 SCS-DF-MP2-F12/3*C(FIX)               -0.300274713310    -76.366383072342
 SCS-DF-MP2-F12/3C(FIX)                -0.300243537800    -76.366351896832
 Symmetry transformation completed.

 Number of N-1 electron functions:               4
 Number of N-2 electron functions:              10
 Number of singly external CSFs:               336
 Number of doubly external CSFs:             56616
 Total number of CSFs:                       56953

 Length of J-op  integral file:               9.11 MB
 Length of K-op  integral file:              14.70 MB
 Length of 3-ext integral record:             0.00 MB

 Memory could be reduced to 4.35 Mwords without degradation in triples

 Integral transformation finished. Total CPU:   0.18 sec, npass=  1  Memory used:   2.09 MW

 Reference energy:                    -76.06610836
