
 Primary working directories    : /tmp/r2518/22877.maple
 Secondary working directories  : /tmp/r2518/22877.maple
 Wavefunction directory         : /ddn/home1/r2518/wfu/
 Main file repository           : /tmp/r2518/22877.maple/

 SHA1      : d5ffa45e93fdbca01ffc919aa182cfdae0147319
 NAME      : 2015.1.35
 ARCHNAME  : linux/x86_64
 FC        : /opt/intel/composer_xe_2015.1.133/bin/intel64/ifort
 BLASLIB   : -Wl,-_start-group /opt/intel/mkl/lib/intel64/libmkl_intel_ilp64.a /opt/intel/mkl/lib/intel64/libmkl_intel_thread.a /opt/intel/mkl/lib/intel64/libmkl_core.a -Wl,-_end-group
 id        : olemiss

 Nodes     nprocs
 cn021        1

 Using customized tuning parameters: mindgm=1; mindgv=20; mindgc=4; mindgr=1; noblas=0; minvec=7
 default implementation of scratch files=df  

 memory,50,m
 nocompress;
 geomtyp=xyz
 angstrom
 geometry={
 O,0.0,0.0,-0.0657441568
 H,-0.05,0.7074590973999999,0.5217905143
 H,0.0,-0.7574590974,0.5217905143
 }
 basis=cc-pVTZ-F12
 set,charge=0
 set,spin=0
 hf
 {CCSD(T)-F12}

 Variables initialized (889), CPU time= 0.00 sec
 Commands  initialized (702), CPU time= 0.01 sec, 572 directives.
 Default parameters read. Elapsed time= 0.05 sec

 Checking input...
 Passed
1


                                         ***  PROGRAM SYSTEM MOLPRO  ***
                                       Copyright, TTI GmbH Stuttgart, 2015
                                    Version 2015.1 linked Jul  9 2018 13:16:40


 **********************************************************************************************************************************
 LABEL *                                                                                 
  64 bit serial version                                                                  DATE: 28-Aug-19          TIME: 15:37:32  
 **********************************************************************************************************************************

 SHA1:             d5ffa45e93fdbca01ffc919aa182cfdae0147319
 **********************************************************************************************************************************

 Input parameters for SORTINT:

 COMPRESS =    0.000000
 C_FINAL  =    1.000000
 DEBUG    =   -1.000000
 C_SORT1  =    0.000000
 C_SEWARD =    0.000000
 THRESH   =    0.000000
 IO       =  molpro                                                          
 SPRI     =    0.000000
 SETTING GEOMTYP        =    XYZ
 ZUNIT=ANG
 

 Variable memory set to   50000000 words,  buffer space   230000 words

 SETTING BASIS          =    CC-PVTZ-F12
 SETTING CHARGE         =     0.00000000D+00                                  
 SETTING SPIN           =     0.00000000D+00                                  


 Recomputing integrals since basis changed


 Using spherical harmonics

 Library entry O      S cc-pVTZ-F12          selected for orbital group  1
 Library entry O      P cc-pVTZ-F12          selected for orbital group  1
 Library entry O      D cc-pVTZ-F12          selected for orbital group  1
 Library entry O      F cc-pVTZ-F12          selected for orbital group  1
 Library entry H      S cc-pVTZ-F12          selected for orbital group  2
 Library entry H      P cc-pVTZ-F12          selected for orbital group  2
 Library entry H      D cc-pVTZ-F12          selected for orbital group  2


 PROGRAM * SEWARD (Integral evaluation for generally contracted gaussian basis sets)     Author: Roland Lindh, 1990

 Geometry written to block  1 of record 700


 Point group  C1  



 ATOMIC COORDINATES

 NR  ATOM    CHARGE       X              Y              Z

   1  O       8.00    0.000000000    0.000000000   -0.124238451
   2  H       1.00   -0.094486306    1.336903938    0.986041166
   3  H       1.00    0.000000000   -1.431390245    0.986041166

 Bond lengths in Bohr (Angstrom)

 1-2  1.740390942  1-3  1.811518385
     ( 0.920975225)     ( 0.958614247)

 Bond angles

  2-1-3  102.47264545

 NUCLEAR CHARGE:                   10
 NUMBER OF PRIMITIVE AOS:         114
 NUMBER OF SYMMETRY AOS:          103
 NUMBER OF CONTRACTIONS:           89   (  89A   )
 NUMBER OF CORE ORBITALS:           1   (   1A   )
 NUMBER OF VALENCE ORBITALS:        6   (   6A   )


 NUCLEAR REPULSION ENERGY    9.37387625


 Eigenvalues of metric

         1 0.199E-03 0.436E-03 0.568E-03 0.688E-03 0.705E-03 0.778E-03 0.153E-02 0.196E-02


 Contracted 2-electron integrals neglected if value below      1.0D-11

        5897313. INTEGRALS WRITTEN OUT IN    1441 BLOCKS ON RECORD 1290 OF FILE 1


 NUMBER OF SORTED TWO-ELECTRON INTEGRALS:    8022015.     BUFFER LENGTH:  32768
 NUMBER OF SEGMENTS:   1  SEGMENT LENGTH:    8022015      RECORD LENGTH: 524288

 Memory used in sort:       8.58 MW

 SORT1 READ     5897313. AND WROTE     5897313. INTEGRALS IN     17 RECORDS. CPU TIME:     0.11 SEC, REAL TIME:     0.17 SEC
 SORT2 READ     5897313. AND WROTE     8022015. INTEGRALS IN      1 RECORDS. CPU TIME:     0.13 SEC, REAL TIME:     0.17 SEC

 FILE SIZES:   FILE 1:   114.6 MBYTE,  FILE 4:    71.3 MBYTE,   TOTAL:    186.0 MBYTE

 OPERATOR DM      FOR CENTER  0  COORDINATES:    0.000000    0.000000    0.000000


 **********************************************************************************************************************************
 DATASETS  * FILE   NREC   LENGTH (MB)   RECORD NAMES
              1      19       70.14       500      610      700      900      950      970     1000      129      960     1100   
                                          VAR    BASINP    GEOM    SYMINP    ZMAT    AOBASIS   BASIS     P2S    ABASIS      S 
                                         1400     1410     1200     1210     1080     1600     1650     1300     1700   
                                           T        V       H0       H01     AOSYM     SMH    MOLCAS    ERIS     OPER   

 PROGRAMS   *        TOTAL       INT
 CPU TIMES  *         0.72      0.62
 REAL TIME  *         1.58 SEC
 DISK USED  *       186.30 MB      
 **********************************************************************************************************************************


 PROGRAM * RHF-SCF (CLOSED SHELL)       Authors: W. Meyer, H.-J. Werner


 NUMBER OF ELECTRONS:       5+    5-    SPACE SYMMETRY=1    SPIN SYMMETRY: Singlet 
 CONVERGENCE THRESHOLDS:    1.00E-05 (Density)    1.00E-07 (Energy)
 MAX. NUMBER OF ITERATIONS:       60
 INTERPOLATION TYPE:            DIIS
 INTERPOLATION STEPS:              2 (START)      1 (STEP)
 LEVEL SHIFTS:                  0.00 (CLOSED)  0.00 (OPEN) 



 Orbital guess generated from atomic densities. Full valence occupancy:    7

 Molecular orbital dump at record        2100.2

 Initial occupancy:   5

 ITERATION    DDIFF          GRAD             ENERGY        2-EL.EN.            DIPOLE MOMENTS         DIIS   ORB.
    1      0.000D+00      0.000D+00       -76.02654106     77.928401   -0.04774   -0.05945    1.13115    0    start
    2      0.000D+00      0.107D-01       -76.05385301     74.386768   -0.02920   -0.02359    0.68180    1    diag
    3      0.113D-01      0.653D-02       -76.06451070     75.932883   -0.03389   -0.03005    0.79338    2    diag
    4      0.379D-02      0.620D-03       -76.06468887     75.843532   -0.03385   -0.02785    0.79085    3    diag
    5      0.556D-03      0.164D-03       -76.06470588     75.857186   -0.03384   -0.02699    0.78999    4    diag
    6      0.190D-03      0.307D-04       -76.06470683     75.856377   -0.03384   -0.02672    0.78988    5    diag
    7      0.524D-04      0.590D-05       -76.06470687     75.856504   -0.03384   -0.02665    0.78981    6    diag
    8      0.106D-04      0.118D-05       -76.06470687     75.856497   -0.03384   -0.02664    0.78978    7    diag
    9      0.197D-05      0.141D-06       -76.06470687     75.856485   -0.03384   -0.02664    0.78978    0    orth

 Final occupancy:   5

 !RHF STATE 1.1 Energy                -76.064706873853
 Nuclear energy                         9.37387625
 One-electron energy                 -123.36682541
 Two-electron energy                   37.92824228
 Virial quotient                       -0.99990756
 !RHF STATE 1.1 Dipole moment          -0.03384340    -0.02663831     0.78977811
 Dipole moment /Debye                  -0.08601571    -0.06770340     2.00728425

 Orbital energies:

         1.1          2.1          3.1          4.1          5.1          6.1          7.1
    -20.562552    -1.364144    -0.723570    -0.592299    -0.512606     0.100213     0.120842

 HOMO      5.1    -0.512606 =     -13.9487eV
 LUMO      6.1     0.100213 =       2.7269eV
 LUMO-HOMO         0.612819 =      16.6757eV


 **********************************************************************************************************************************
 DATASETS  * FILE   NREC   LENGTH (MB)   RECORD NAMES
              1      19       70.14       500      610      700      900      950      970     1000      129      960     1100   
                                          VAR    BASINP    GEOM    SYMINP    ZMAT    AOBASIS   BASIS     P2S    ABASIS      S 
                                         1400     1410     1200     1210     1080     1600     1650     1300     1700   
                                           T        V       H0       H01     AOSYM     SMH    MOLCAS    ERIS     OPER   

              2       4        2.95       700     1000      520     2100   
                                         GEOM     BASIS   MCVARS     RHF  

 PROGRAMS   *        TOTAL        HF       INT
 CPU TIMES  *         1.37      0.65      0.62
 REAL TIME  *         2.28 SEC
 DISK USED  *       186.30 MB      
 **********************************************************************************************************************************


 PROGRAM * CCSD (Closed-shell coupled cluster)     Authors: C. Hampel, H.-J. Werner, 1991, M. Deegan, P.J. Knowles, 1992

                                  CCSD-F12 implementation by  H.-J. Werner, 2007

                   Density fitting integral evaluation by F.R. Manby, 2003,2007, G. Knizia, 2010

 Basis set AUG-CC-PVTZ/JKFIT generated.  Number of basis functions:   196 
 Basis set CC-PVTZ-F12/OPTRI generated.  Number of basis functions:   157 
 Basis set AUG-CC-PVTZ/MP2FIT generated. Number of basis functions:   198 

 Convergence thresholds:  THRVAR = 1.00D-08  THRDEN = 1.00D-06

 CCSD(T)     terms to be evaluated (factor= 1.000)


 Number of core orbitals:           1 (   1 )
 Number of closed-shell orbitals:   4 (   4 )
 Number of external orbitals:      84 (  84 )

 Molecular orbitals read from record     2100.2  Type=RHF/CANONICAL (state 1.1)

 MP2-F12 correlation treatment (H.-J. Werner, 2006)
 ==================================================

 Using MP2-F12 with ansatz 3C(FIX)

 Using projected zeroth-order Hamiltonian (+Z)

 FOCKRIB=T FOCKRIC=T FOCKRIP=T CABSP=T CABSA=T CABSK=T CABSF=T GBC=F EBC=F DMAT=T NOFIK=T NOPAO=1 SOLVE=-1  USEPAO=0
 EXCH_A= T EXCH_B= F EXCH_C= F EXCH_P= F
 
 Geminal basis:    OPTFULL  GEM_TYPE=SLATER  BETA=1.0  NGEM=6

 Optimizing Gaussian exponents for each gem_beta

 Geminal optimization for beta= 1.0000
 Weight function:   m=0, omega= 1.4646

 Augmented Hessian optimization of geminal fit. Trust ratio= 0.40000
 Convergence reached after   2 iterations. Final gradient= 8.12D-16, Step= 4.39D-06, Delta= 1.28D-09
 
 Alpha:                 0.19532     0.81920     2.85917     9.50073    35.69989   197.79328
 Coeff:                 0.27070     0.30552     0.18297     0.10986     0.06810     0.04224
 

 All pairs explicitly correlated. Number of r12-pairs:           10

 Excluding core orbitals from MO domains
 
 AO(A)-basis ORBITAL           loaded. Number of functions:      89
 RI(R)-basis CC-PVTZ-F12/OPTRI loaded. Number of functions:     157
 DF-basis AUG-CC-PVTZ/JKFIT    loaded. Number of functions:     196

 Screening thresholds:   THRAO=  1.00D-10  THRMO=  1.00D-09  THRPROD=  1.00D-09
                         THRSW=  1.00D-05  THROV=  1.00D-12  THRAOF12=   1.00D-08

 CPU time for Fock operators                      0.37 sec
 
 Construction of ABS:
 Smallest eigenvalue of S          7.05E-04  (threshold= 1.00E-08)
 Ratio eigmin/eigmax               1.16E-04  (threshold= 1.00E-09)
 Smallest eigenvalue of S kept     7.05E-04  (threshold= 7.05E-04, 0 functions deleted, 157 kept)
 
 Construction of CABS:
 Smallest eigenvalue of S          1.64E-06  (threshold= 1.00E-08)
 Ratio eigmin/eigmax               1.64E-06  (threshold= 1.00E-09)
 Smallest eigenvalue of S kept     1.64E-06  (threshold= 1.64E-06, 0 functions deleted, 157 kept)
 
 CPU time for CABS singles                        0.02 sec

 CABS-singles contribution of  -0.00104906 patched into reference energy.
 New reference energy         -76.06575593
 
 AO(A)-basis ORBITAL           loaded. Number of functions:      89
 RI(R)-basis CC-PVTZ-F12/OPTRI loaded. Number of functions:     157
 DF-basis AUG-CC-PVTZ/MP2FIT   loaded. Number of functions:     198

 Screening thresholds:   THRAO=  1.00D-10  THRMO=  1.00D-09  THRPROD=  1.00D-09
                         THRSW=  1.00D-05  THROV=  1.00D-12  THRAOF12=   1.00D-08

 CPU time for 3-index integral evaluation         0.48 sec
 CPU time for first  half transformation          0.05 sec ( 3527.2 MFLOP/sec)
 CPU time for tilde quantities                    0.01 sec (10820.3 MFLOP/sec)
 CPU time for assembly                            0.03 sec (17837.5 MFLOP/sec)
 CPU time for tranop_f12                          0.04 sec (16298.2 MFLOP/sec)
 CPU time for f12 integrals (total)               0.67 sec, Elapsed time:      0.70 sec
 CPU time for f12 matrices (total)                0.01 sec, Elapsed time:      0.02 sec

 Diagonal F12 approximation with fixed coefficients:  TSING= 0.500,  TTRIP= 0.250 (scaled by -1/beta)

 DF-MP2-F12 energy corrections:
 ==============================
 Approx.                                    Singlet             Triplet             Total
 DF-MP2-F12/3*C(DX,FIX)                -0.025371619983     -0.003043846330     -0.028415466313
 DF-MP2-F12/3*C(FIX)                   -0.023541007590     -0.002747423635     -0.026288431226
 DF-MP2-F12/3C(FIX)                    -0.023462269467     -0.002843724531     -0.026305993998

 DF-MP2-F12 correlation energies:
 ================================
 Approx.                                    Singlet             Triplet             Ecorr            Total Energy
 DF-MP2                                -0.172953098349     -0.098770663549     -0.271723761898    -76.337479694238
 DF-MP2-F12/3*C(DX,FIX)                -0.198324718331     -0.101814509879     -0.300139228210    -76.365895160550
 DF-MP2-F12/3*C(FIX)                   -0.196494105939     -0.101518087184     -0.298012193123    -76.363768125463
 DF-MP2-F12/3C(FIX)                    -0.196415367816     -0.101614388080     -0.298029755895    -76.363785688235

 SCS-DF-MP2 energies (F_SING= 1.20000  F_TRIP= 0.62222  F_PARALLEL= 0.33333):
 ============================================================================
 SCS-DF-MP2                            -0.269001019782    -76.334756952122
 SCS-DF-MP2-F12/3*C(DX,FIX)            -0.301340912589    -76.367096844929
 SCS-DF-MP2-F12/3*C(FIX)               -0.298959736930    -76.364715669270
 SCS-DF-MP2-F12/3C(FIX)                -0.298925171740    -76.364681104080
 Symmetry transformation completed.

 Number of N-1 electron functions:               4
 Number of N-2 electron functions:              10
 Number of singly external CSFs:               336
 Number of doubly external CSFs:             56616
 Total number of CSFs:                       56953

 Length of J-op  integral file:               9.11 MB
 Length of K-op  integral file:              14.70 MB
 Length of 3-ext integral record:             0.00 MB

 Memory could be reduced to 4.35 Mwords without degradation in triples

 Integral transformation finished. Total CPU:   0.18 sec, npass=  1  Memory used:   2.09 MW

 Reference energy:                    -76.06575593

 Adding F12 terms to K(Cij), methodcc=6,  factor= 1.0

 ITER.      SQ.NORM     CORR.ENERGY   TOTAL ENERGY   ENERGY CHANGE        DEN1      VAR(S)    VAR(P)  DIIS     TIME  TIME/IT
   1      1.06035670    -0.27224804   -76.33800397    -0.00048234     0.00509142  0.68D-03  0.90D-03  1  1     1.47     0.16
   2      1.06339281    -0.27197057   -76.33772651     0.00027747    -0.00435488  0.12D-04  0.93D-04  2  2     1.63     0.16
   3      1.06442491    -0.27208520   -76.33784113    -0.00011463    -0.00073458  0.78D-05  0.58D-05  3  3     1.78     0.16
   4      1.06488846    -0.27210486   -76.33786080    -0.00001966    -0.00031641  0.38D-06  0.46D-06  4  4     1.94     0.16
   5      1.06496703    -0.27210331   -76.33785925     0.00000155    -0.00001702  0.10D-06  0.27D-07  5  5     2.08     0.16
   6      1.06498813    -0.27210212   -76.33785805     0.00000119    -0.00000344  0.90D-08  0.27D-08  6  6     2.24     0.16
   7      1.06499360    -0.27210177   -76.33785770     0.00000035    -0.00000127  0.74D-09  0.21D-09  6  1     2.40     0.16
   8      1.06499485    -0.27210183   -76.33785776    -0.00000006    -0.00000001  0.52D-10  0.21D-10  6  2     2.55     0.16

 Norm of t1 vector:      0.03387949      S-energy:    -0.00000009      T1 diagnostic:  0.00846987
                                                                       D1 diagnostic:  0.01687186

 Adding energy correction from Wij-K(Fij), methodcc=6  factor= 1.0
 
  CCSD correlation energy              -0.272101827092
  MP2-F12 correction (uncoupled)       -0.025188264005
  C*T doubles correction               -0.000843358073
  f12b correction                       0.004262532265


 Total CPU time for triples:      0.81 sec


 RESULTS
 =======

  Reference energy                    -76.064706873853
  F12 singles correction               -0.001049058487

 F12 singles corrections added to reference energy

  New reference energy                -76.065755932340

  F12a singlet correction              -0.023293932440
  F12a triplet correction              -0.002737689637
  F12a total correction                -0.026031622078

 F12a corrections for ansatz F12/3C(FIX) added to CCSD energy
 
  CCSD-F12a singlet pair energy        -0.207485174690
  CCSD-F12a triplet pair energy        -0.090648182522
  CCSD-F12a correlation energy         -0.298133449169

  Triples (T) contribution             -0.008544375496
  Total correlation energy             -0.306677824666

  CCSD-F12a total energy              -76.363889381510
  CCSD[T]-F12a energy                 -76.372710962329
  CCSD-T-F12a energy                  -76.372313669498
 !CCSD(T)-F12a total energy           -76.372433757006

 F12b corrections for ansatz F12/3C(FIX) added to CCSD(T)-F12a energy

  CCSD-F12b singlet pair energy        -0.203535088583
  CCSD-F12b triplet pair energy        -0.090335736364
  CCSD-F12b correlation energy         -0.293870916904

  Triples (T) contribution             -0.008544375496
  Total correlation energy             -0.302415292400

  CCSD-F12b total energy              -76.359626849244
  CCSD[T]-F12b energy                 -76.368448430064
  CCSD-T-F12b energy                  -76.368051137232
 !CCSD(T)-F12b total energy           -76.368171224740

 Timing summary (sec):

 STEP                 CPU(USER)    SYS     CPU(TOT)    WALL
 Transformation          0.19      0.01      0.20      0.20
 CCSD iterations         1.26      0.09      1.35      1.36
 Triples                 0.81      0.01      0.82      0.82
 MP2-F12                 1.10      0.05      1.15      1.15
 F12b energy             0.11      0.01      0.12      0.13

 Program statistics:

 Available memory in ccsd:                49999786
 Min. memory needed in ccsd:                269472
 Max. memory used in ccsd:                  308684
 Max. memory used in cckext:                227914 ( 9 integral passes)



 **********************************************************************************************************************************
 DATASETS  * FILE   NREC   LENGTH (MB)   RECORD NAMES
              1      20       80.82       500      610      700      900      950      970     1000      129      960     1100   
                                          VAR    BASINP    GEOM    SYMINP    ZMAT    AOBASIS   BASIS     P2S    ABASIS      S 
                                         1400     1410     1200     1210     1080     1600     1650     1300     1700     1380   
                                           T        V       H0       H01     AOSYM     SMH    MOLCAS    ERIS     OPER     JKOP   

              2       6        3.11       700     1000      520     2100     7360     7350   
                                         GEOM     BASIS   MCVARS     RHF    F12ABS    EF12   

 PROGRAMS   *        TOTAL   CCSD(T)        HF       INT
 CPU TIMES  *         4.86      3.49      0.65      0.62
 REAL TIME  *         6.60 SEC
 DISK USED  *       186.30 MB      
 **********************************************************************************************************************************

 CCSD(T)-F12/cc-pVTZ-F12 energy=    -76.368171224740

     CCSD(T)-F12        HF-SCF  
    -76.36817122    -76.06470687
 **********************************************************************************************************************************
 Molpro calculation terminated
 Variable memory released
