
 Primary working directories    : /tmp/r2518/22870.maple
 Secondary working directories  : /tmp/r2518/22870.maple
 Wavefunction directory         : /ddn/home1/r2518/wfu/
 Main file repository           : /tmp/r2518/22870.maple/

 SHA1      : d5ffa45e93fdbca01ffc919aa182cfdae0147319
 NAME      : 2015.1.35
 ARCHNAME  : linux/x86_64
 FC        : /opt/intel/composer_xe_2015.1.133/bin/intel64/ifort
 BLASLIB   : -Wl,-_start-group /opt/intel/mkl/lib/intel64/libmkl_intel_ilp64.a /opt/intel/mkl/lib/intel64/libmkl_intel_thread.a /opt/intel/mkl/lib/intel64/libmkl_core.a -Wl,-_end-group
 id        : olemiss

 Nodes     nprocs
 cn083        1

 Using customized tuning parameters: mindgm=1; mindgv=20; mindgc=4; mindgr=1; noblas=0; minvec=7
 default implementation of scratch files=df  

 memory,50,m
 nocompress;
 geomtyp=xyz
 angstrom
 geometry={
 O,0.0,-0.05,-0.0657441568
 H,0.0,0.7574590974,0.5217905143
 H,0.0,-0.7574590974,0.4717905143
 }
 basis=cc-pVTZ-F12
 set,charge=0
 set,spin=0
 hf
 {CCSD(T)-F12}

 Variables initialized (889), CPU time= 0.01 sec
 Commands  initialized (702), CPU time= 0.01 sec, 572 directives.
 Default parameters read. Elapsed time= 0.05 sec

 Checking input...
 Passed
1


                                         ***  PROGRAM SYSTEM MOLPRO  ***
                                       Copyright, TTI GmbH Stuttgart, 2015
                                    Version 2015.1 linked Jul  9 2018 13:16:40


 **********************************************************************************************************************************
 LABEL *                                                                                 
  64 bit serial version                                                                  DATE: 28-Aug-19          TIME: 15:37:30  
 **********************************************************************************************************************************

 SHA1:             d5ffa45e93fdbca01ffc919aa182cfdae0147319
 **********************************************************************************************************************************

 Input parameters for SORTINT:

 COMPRESS =    0.000000
 C_FINAL  =    1.000000
 DEBUG    =   -1.000000
 C_SORT1  =    0.000000
 C_SEWARD =    0.000000
 THRESH   =    0.000000
 IO       =  molpro                                                          
 SPRI     =    0.000000
 SETTING GEOMTYP        =    XYZ
 ZUNIT=ANG
 

 Variable memory set to   50000000 words,  buffer space   230000 words

 SETTING BASIS          =    CC-PVTZ-F12
 SETTING CHARGE         =     0.00000000D+00                                  
 SETTING SPIN           =     0.00000000D+00                                  


 Recomputing integrals since basis changed


 Using spherical harmonics

 Library entry O      S cc-pVTZ-F12          selected for orbital group  1
 Library entry O      P cc-pVTZ-F12          selected for orbital group  1
 Library entry O      D cc-pVTZ-F12          selected for orbital group  1
 Library entry O      F cc-pVTZ-F12          selected for orbital group  1
 Library entry H      S cc-pVTZ-F12          selected for orbital group  2
 Library entry H      P cc-pVTZ-F12          selected for orbital group  2
 Library entry H      D cc-pVTZ-F12          selected for orbital group  2


 PROGRAM * SEWARD (Integral evaluation for generally contracted gaussian basis sets)     Author: Roland Lindh, 1990

 Geometry written to block  1 of record 700


 Point group  Cs  



 ATOMIC COORDINATES

 NR  ATOM    CHARGE       X              Y              Z

   1  O       8.00    0.000000000   -0.094486306   -0.124238451
   2  H       1.00    0.000000000    1.431390245    0.986041166
   3  H       1.00    0.000000000   -1.431390245    0.891554860

 Bond lengths in Bohr (Angstrom)

 1-2  1.887066527  1-3  1.679031921
     ( 0.998592601)     ( 0.888505429)

 Bond angles

  2-1-3  106.73114960

 NUCLEAR CHARGE:                   10
 NUMBER OF PRIMITIVE AOS:         114
 NUMBER OF SYMMETRY AOS:          103
 NUMBER OF CONTRACTIONS:           89   (  61A'  +  28A"  )
 NUMBER OF CORE ORBITALS:           1   (   1A'  +   0A"  )
 NUMBER OF VALENCE ORBITALS:        6   (   5A'  +   1A"  )


 NUCLEAR REPULSION ENERGY    9.35315517

 Eigenvalues of metric

         1 0.193E-03 0.441E-03 0.567E-03 0.704E-03 0.783E-03 0.154E-02 0.193E-02 0.210E-02
         2 0.688E-03 0.633E-02 0.114E-01 0.420E-01 0.828E-01 0.895E-01 0.119E+00 0.181E+00


 Contracted 2-electron integrals neglected if value below      1.0D-11

        3676681. INTEGRALS WRITTEN OUT IN     898 BLOCKS ON RECORD 1290 OF FILE 1


 NUMBER OF SORTED TWO-ELECTRON INTEGRALS:    4174745.     BUFFER LENGTH:  32768
 NUMBER OF SEGMENTS:   1  SEGMENT LENGTH:    4174745      RECORD LENGTH: 524288

 Memory used in sort:       4.73 MW

 SORT1 READ     3676681. AND WROTE     3739797. INTEGRALS IN     11 RECORDS. CPU TIME:     0.06 SEC, REAL TIME:     0.10 SEC
 SORT2 READ     3739797. AND WROTE     4174745. INTEGRALS IN      1 RECORDS. CPU TIME:     0.08 SEC, REAL TIME:     0.11 SEC

 FILE SIZES:   FILE 1:    79.0 MBYTE,  FILE 4:    46.2 MBYTE,   TOTAL:    125.2 MBYTE

 OPERATOR DM      FOR CENTER  0  COORDINATES:    0.000000    0.000000    0.000000


 **********************************************************************************************************************************
 DATASETS  * FILE   NREC   LENGTH (MB)   RECORD NAMES
              1      19       51.17       500      610      700      900      950      970     1000      129      960     1100   
                                          VAR    BASINP    GEOM    SYMINP    ZMAT    AOBASIS   BASIS     P2S    ABASIS      S 
                                         1400     1410     1200     1210     1080     1600     1650     1300     1700   
                                           T        V       H0       H01     AOSYM     SMH    MOLCAS    ERIS     OPER   

 PROGRAMS   *        TOTAL       INT
 CPU TIMES  *         0.63      0.53
 REAL TIME  *         2.58 SEC
 DISK USED  *       125.48 MB      
 **********************************************************************************************************************************


 PROGRAM * RHF-SCF (CLOSED SHELL)       Authors: W. Meyer, H.-J. Werner


 NUMBER OF ELECTRONS:       5+    5-
 CONVERGENCE THRESHOLDS:    1.00E-05 (Density)    1.00E-07 (Energy)
 MAX. NUMBER OF ITERATIONS:       60
 INTERPOLATION TYPE:            DIIS
 INTERPOLATION STEPS:              2 (START)      1 (STEP)
 LEVEL SHIFTS:                  0.00 (CLOSED)  0.00 (OPEN) 



 Orbital guess generated from atomic densities. Full valence occupancy:    6   1

 Molecular orbital dump at record        2100.2

 Initial occupancy:   4   1

 ITERATION    DDIFF          GRAD             ENERGY        2-EL.EN.            DIPOLE MOMENTS         DIIS   ORB.
    1      0.000D+00      0.000D+00       -76.02064160     77.961868    0.00000    0.13314    1.09611    0    start
    2      0.000D+00      0.137D-01       -76.04802158     74.345411    0.00000    0.04537    0.66381    1    diag
    3      0.150D-01      0.847D-02       -76.05891724     75.912812    0.00000    0.05986    0.76971    2    diag
    4      0.505D-02      0.798D-03       -76.05911045     75.825107    0.00000    0.05339    0.76678    3    diag
    5      0.755D-03      0.219D-03       -76.05912973     75.838081    0.00000    0.05089    0.76548    4    diag
    6      0.258D-03      0.435D-04       -76.05913098     75.837152    0.00000    0.05011    0.76519    5    diag
    7      0.744D-04      0.901D-05       -76.05913104     75.837278    0.00000    0.04991    0.76505    6    diag
    8      0.162D-04      0.178D-05       -76.05913104     75.837268    0.00000    0.04989    0.76500    7    diag
    9      0.300D-05      0.247D-06       -76.05913104     75.837256    0.00000    0.04989    0.76500    0    orth

 Final occupancy:   4   1

 !RHF STATE 1.1 Energy                -76.059131043698
 Nuclear energy                         9.35315517
 One-electron energy                 -123.33091444
 Two-electron energy                   37.91862823
 Virial quotient                       -0.99987646
 !RHF STATE 1.1 Dipole moment           0.00000000     0.04988618     0.76500001
 Dipole moment /Debye                   0.00000000     0.12678972     1.94430873

 Orbital energies:

         1.1          2.1          3.1          4.1          5.1          6.1
    -20.560818    -1.361655    -0.730682    -0.582384     0.101242     0.119582

         1.2          2.2          3.2
     -0.511289     0.145131     0.478619

 HOMO      1.2    -0.511289 =     -13.9129eV
 LUMO      5.1     0.101242 =       2.7549eV
 LUMO-HOMO         0.612532 =      16.6678eV


 **********************************************************************************************************************************
 DATASETS  * FILE   NREC   LENGTH (MB)   RECORD NAMES
              1      19       51.17       500      610      700      900      950      970     1000      129      960     1100   
                                          VAR    BASINP    GEOM    SYMINP    ZMAT    AOBASIS   BASIS     P2S    ABASIS      S 
                                         1400     1410     1200     1210     1080     1600     1650     1300     1700   
                                           T        V       H0       H01     AOSYM     SMH    MOLCAS    ERIS     OPER   

              2       4        2.88       700     1000      520     2100   
                                         GEOM     BASIS   MCVARS     RHF  

 PROGRAMS   *        TOTAL        HF       INT
 CPU TIMES  *         0.87      0.24      0.53
 REAL TIME  *         2.96 SEC
 DISK USED  *       125.48 MB      
 **********************************************************************************************************************************


 PROGRAM * CCSD (Closed-shell coupled cluster)     Authors: C. Hampel, H.-J. Werner, 1991, M. Deegan, P.J. Knowles, 1992

                                  CCSD-F12 implementation by  H.-J. Werner, 2007

                   Density fitting integral evaluation by F.R. Manby, 2003,2007, G. Knizia, 2010

 Basis set AUG-CC-PVTZ/JKFIT generated.  Number of basis functions:   196 
 Basis set CC-PVTZ-F12/OPTRI generated.  Number of basis functions:   157 
 Basis set AUG-CC-PVTZ/MP2FIT generated. Number of basis functions:   198 

 Convergence thresholds:  THRVAR = 1.00D-08  THRDEN = 1.00D-06

 CCSD(T)     terms to be evaluated (factor= 1.000)


 Number of core orbitals:           1 (   1   0 )
 Number of closed-shell orbitals:   4 (   3   1 )
 Number of external orbitals:      84 (  57  27 )

 Molecular orbitals read from record     2100.2  Type=RHF/CANONICAL (state 1.1)

 MP2-F12 correlation treatment (H.-J. Werner, 2006)
 ==================================================

 Using MP2-F12 with ansatz 3C(FIX)

 Using projected zeroth-order Hamiltonian (+Z)

 FOCKRIB=T FOCKRIC=T FOCKRIP=T CABSP=T CABSA=T CABSK=T CABSF=T GBC=F EBC=F DMAT=T NOFIK=T NOPAO=1 SOLVE=-1  USEPAO=0
 EXCH_A= T EXCH_B= F EXCH_C= F EXCH_P= F
 
 Geminal basis:    OPTFULL  GEM_TYPE=SLATER  BETA=1.0  NGEM=6

 Optimizing Gaussian exponents for each gem_beta

 Geminal optimization for beta= 1.0000
 Weight function:   m=0, omega= 1.4646

 Augmented Hessian optimization of geminal fit. Trust ratio= 0.40000
 Convergence reached after   2 iterations. Final gradient= 8.41D-16, Step= 4.29D-06, Delta= 1.28D-09
 
 Alpha:                 0.19532     0.81920     2.85917     9.50073    35.69989   197.79328
 Coeff:                 0.27070     0.30552     0.18297     0.10986     0.06810     0.04224
 

 Symmetry turned off. Reference energy:        -76.059131043698

 All pairs explicitly correlated. Number of r12-pairs:           10

 Excluding core orbitals from MO domains
 
 AO(A)-basis ORBITAL           loaded. Number of functions:      89
 RI(R)-basis CC-PVTZ-F12/OPTRI loaded. Number of functions:     157
 DF-basis AUG-CC-PVTZ/JKFIT    loaded. Number of functions:     196

 Screening thresholds:   THRAO=  1.00D-10  THRMO=  1.00D-09  THRPROD=  1.00D-09
                         THRSW=  1.00D-05  THROV=  1.00D-12  THRAOF12=   1.00D-08

 CPU time for Fock operators                      0.93 sec
 
 Construction of ABS:
 Smallest eigenvalue of S          6.53E-04  (threshold= 1.00E-08)
 Ratio eigmin/eigmax               1.09E-04  (threshold= 1.00E-09)
 Smallest eigenvalue of S kept     6.53E-04  (threshold= 6.53E-04, 0 functions deleted, 157 kept)
 
 Construction of CABS:
 Smallest eigenvalue of S          1.58E-06  (threshold= 1.00E-08)
 Ratio eigmin/eigmax               1.58E-06  (threshold= 1.00E-09)
 Smallest eigenvalue of S kept     1.58E-06  (threshold= 1.58E-06, 0 functions deleted, 157 kept)
 
 CPU time for CABS singles                        0.01 sec

 CABS-singles contribution of  -0.00104773 patched into reference energy.
 New reference energy         -76.06017877
 
 AO(A)-basis ORBITAL           loaded. Number of functions:      89
 RI(R)-basis CC-PVTZ-F12/OPTRI loaded. Number of functions:     157
 DF-basis AUG-CC-PVTZ/MP2FIT   loaded. Number of functions:     198

 Screening thresholds:   THRAO=  1.00D-10  THRMO=  1.00D-09  THRPROD=  1.00D-09
                         THRSW=  1.00D-05  THROV=  1.00D-12  THRAOF12=   1.00D-08

 CPU time for 3-index integral evaluation         0.45 sec
 CPU time for first  half transformation          0.02 sec ( 8818.0 MFLOP/sec)
 CPU time for sorting                             0.01 sec
 CPU time for tilde quantities                    0.01 sec (10820.3 MFLOP/sec)
 CPU time for assembly                            0.01 sec (53512.5 MFLOP/sec)
 CPU time for tranop_f12                          0.01 sec (65192.9 MFLOP/sec)
 CPU time for f12 integrals (total)               1.31 sec, Elapsed time:      2.87 sec
 CPU time for f12 matrices (total)                0.01 sec, Elapsed time:      0.01 sec

 Diagonal F12 approximation with fixed coefficients:  TSING= 0.500,  TTRIP= 0.250 (scaled by -1/beta)

 DF-MP2-F12 energy corrections:
 ==============================
 Approx.                                    Singlet             Triplet             Total
 DF-MP2-F12/3*C(DX,FIX)                -0.025388693858     -0.003042472128     -0.028431165986
 DF-MP2-F12/3*C(FIX)                   -0.023559492585     -0.002745517970     -0.026305010555
 DF-MP2-F12/3C(FIX)                    -0.023479928070     -0.002841583269     -0.026321511339

 DF-MP2-F12 correlation energies:
 ================================
 Approx.                                    Singlet             Triplet             Ecorr            Total Energy
 DF-MP2                                -0.173001616709     -0.098701858568     -0.271703475277    -76.331882247798
 DF-MP2-F12/3*C(DX,FIX)                -0.198390310567     -0.101744330696     -0.300134641263    -76.360313413784
 DF-MP2-F12/3*C(FIX)                   -0.196561109294     -0.101447376538     -0.298008485832    -76.358187258353
 DF-MP2-F12/3C(FIX)                    -0.196481544779     -0.101543441837     -0.298024986616    -76.358203759137

 SCS-DF-MP2 energies (F_SING= 1.20000  F_TRIP= 0.62222  F_PARALLEL= 0.33333):
 ============================================================================
 SCS-DF-MP2                            -0.269016429826    -76.329195202347
 SCS-DF-MP2-F12/3*C(DX,FIX)            -0.301375956225    -76.361554728746
 SCS-DF-MP2-F12/3*C(FIX)               -0.298996143221    -76.359174915742
 SCS-DF-MP2-F12/3C(FIX)                -0.298960439767    -76.359139212288

 Symmetry restored.
 Symmetry transformation completed.

 Number of N-1 electron functions:               4
 Number of N-2 electron functions:              10
 Number of singly external CSFs:               198
 Number of doubly external CSFs:             29292
 Total number of CSFs:                       29491

 Length of J-op  integral file:               8.97 MB
 Length of K-op  integral file:              13.62 MB
 Length of 3-ext integral record:             0.00 MB

 Memory could be reduced to 2.37 Mwords without degradation in triples

 Integral transformation finished. Total CPU:   0.04 sec, npass=  1  Memory used:   0.62 MW

 Reference energy:                    -76.06017877

 Adding F12 terms to K(Cij), methodcc=6,  factor= 1.0

 ITER.      SQ.NORM     CORR.ENERGY   TOTAL ENERGY   ENERGY CHANGE        DEN1      VAR(S)    VAR(P)  DIIS     TIME  TIME/IT
   1      1.06054973    -0.27226462   -76.33244339    -0.00051852     0.00508045  0.68D-03  0.91D-03  1  1     2.56     1.01
   2      1.06363577    -0.27200192   -76.33218070     0.00026270    -0.00437716  0.12D-04  0.95D-04  2  2     2.63     0.54
   3      1.06470106    -0.27212007   -76.33229884    -0.00011814    -0.00074914  0.79D-05  0.61D-05  3  3     2.68     0.38
   4      1.06518033    -0.27214005   -76.33231882    -0.00001999    -0.00032270  0.38D-06  0.47D-06  4  4     2.73     0.30
   5      1.06526164    -0.27213844   -76.33231722     0.00000161    -0.00001754  0.11D-06  0.28D-07  5  5     2.78     0.25
   6      1.06528320    -0.27213725   -76.33231603     0.00000119    -0.00000353  0.91D-08  0.28D-08  6  6     2.82     0.22
   7      1.06528880    -0.27213691   -76.33231568     0.00000035    -0.00000130  0.78D-09  0.22D-09  6  1     2.89     0.20
   8      1.06529008    -0.27213696   -76.33231573    -0.00000006    -0.00000000  0.58D-10  0.22D-10  6  2     2.94     0.18

 Norm of t1 vector:      0.03410287      S-energy:    -0.00000010      T1 diagnostic:  0.00852572
                                                                       D1 diagnostic:  0.01684374

 Adding energy correction from Wij-K(Fij), methodcc=6  factor= 1.0
 
  CCSD correlation energy              -0.272136961605
  MP2-F12 correction (uncoupled)       -0.025206245349
  C*T doubles correction               -0.000840914024
  f12b correction                       0.004266239966


 Total CPU time for triples:      0.21 sec


 RESULTS
 =======

  Reference energy                    -76.059131043698
  F12 singles correction               -0.001047728823

 F12 singles corrections added to reference energy

  New reference energy                -76.060178772521

  F12a singlet correction              -0.023311490331
  F12a triplet correction              -0.002735669043
  F12a total correction                -0.026047159374

 F12a corrections for ansatz F12/3C(FIX) added to CCSD energy
 
  CCSD-F12a singlet pair energy        -0.207623808432
  CCSD-F12a triplet pair energy        -0.090560210519
  CCSD-F12a correlation energy         -0.298184120978

  Triples (T) contribution             -0.008557985148
  Total correlation energy             -0.306742106126

  CCSD-F12a total energy              -76.358362893499
  CCSD[T]-F12a energy                 -76.367200053076
  CCSD-T-F12a energy                  -76.366799788582
 !CCSD(T)-F12a total energy           -76.366920878647

 F12b corrections for ansatz F12/3C(FIX) added to CCSD(T)-F12a energy

  CCSD-F12b singlet pair energy        -0.203669828194
  CCSD-F12b triplet pair energy        -0.090247950792
  CCSD-F12b correlation energy         -0.293917881013

  Triples (T) contribution             -0.008557985148
  Total correlation energy             -0.302475866161

  CCSD-F12b total energy              -76.354096653534
  CCSD[T]-F12b energy                 -76.362933813110
  CCSD-T-F12b energy                  -76.362533548616
 !CCSD(T)-F12b total energy           -76.362654638682

 Timing summary (sec):

 STEP                 CPU(USER)    SYS     CPU(TOT)    WALL
 Transformation          0.04      0.03      0.07      0.25
 CCSD iterations         0.50      0.07      0.57      2.07
 Triples                 0.21      0.01      0.22      0.21
 MP2-F12                 2.40      0.11      2.51      7.41
 F12b energy             0.04      0.00      0.04      0.05

 Program statistics:

 Available memory in ccsd:                49999786
 Min. memory needed in ccsd:                145972
 Max. memory used in ccsd:                  166319
 Max. memory used in cckext:                248663 ( 9 integral passes)



 **********************************************************************************************************************************
 DATASETS  * FILE   NREC   LENGTH (MB)   RECORD NAMES
              1      20       56.67       500      610      700      900      950      970     1000      129      960     1100   
                                          VAR    BASINP    GEOM    SYMINP    ZMAT    AOBASIS   BASIS     P2S    ABASIS      S 
                                         1400     1410     1200     1210     1080     1600     1650     1300     1700     1380   
                                           T        V       H0       H01     AOSYM     SMH    MOLCAS    ERIS     OPER     JKOP   

              2       6        2.97       700     1000      520     2100     7360     7350   
                                         GEOM     BASIS   MCVARS     RHF    F12ABS    EF12   

 PROGRAMS   *        TOTAL   CCSD(T)        HF       INT
 CPU TIMES  *         4.11      3.23      0.24      0.53
 REAL TIME  *        13.12 SEC
 DISK USED  *       125.48 MB      
 **********************************************************************************************************************************

 CCSD(T)-F12/cc-pVTZ-F12 energy=    -76.362654638682

     CCSD(T)-F12        HF-SCF  
    -76.36265464    -76.05913104
 **********************************************************************************************************************************
 Molpro calculation terminated
 Variable memory released
