
 Primary working directories    : /tmp/r2518/22938.maple
 Secondary working directories  : /tmp/r2518/22938.maple
 Wavefunction directory         : /ddn/home1/r2518/wfu/
 Main file repository           : /tmp/r2518/22938.maple/

 SHA1      : d5ffa45e93fdbca01ffc919aa182cfdae0147319
 NAME      : 2015.1.35
 ARCHNAME  : linux/x86_64
 FC        : /opt/intel/composer_xe_2015.1.133/bin/intel64/ifort
 BLASLIB   : -Wl,-_start-group /opt/intel/mkl/lib/intel64/libmkl_intel_ilp64.a /opt/intel/mkl/lib/intel64/libmkl_intel_thread.a /opt/intel/mkl/lib/intel64/libmkl_core.a -Wl,-_end-group
 id        : olemiss

 Nodes     nprocs
 cn060        1

 Using customized tuning parameters: mindgm=1; mindgv=20; mindgc=4; mindgr=1; noblas=0; minvec=7
 default implementation of scratch files=df  

 memory,50,m
 nocompress;
 geomtyp=xyz
 angstrom
 geometry={
 O,0.0,0.0,-0.0657441568
 H,-0.05,0.7574590974,0.5217905143
 H,0.0,-0.7574590974,0.5717905143
 }
 basis=cc-pVTZ-F12
 set,charge=0
 set,spin=0
 hf
 {CCSD(T)-F12}

 Variables initialized (889), CPU time= 0.00 sec
 Commands  initialized (702), CPU time= 0.01 sec, 572 directives.
 Default parameters read. Elapsed time= 0.07 sec

 Checking input...
 Passed
1


                                         ***  PROGRAM SYSTEM MOLPRO  ***
                                       Copyright, TTI GmbH Stuttgart, 2015
                                    Version 2015.1 linked Jul  9 2018 13:16:40


 **********************************************************************************************************************************
 LABEL *                                                                                 
  64 bit serial version                                                                  DATE: 28-Aug-19          TIME: 15:37:42  
 **********************************************************************************************************************************

 SHA1:             d5ffa45e93fdbca01ffc919aa182cfdae0147319
 **********************************************************************************************************************************

 Input parameters for SORTINT:

 COMPRESS =    0.000000
 C_FINAL  =    1.000000
 DEBUG    =   -1.000000
 C_SORT1  =    0.000000
 C_SEWARD =    0.000000
 THRESH   =    0.000000
 IO       =  molpro                                                          
 SPRI     =    0.000000
 SETTING GEOMTYP        =    XYZ
 ZUNIT=ANG
 

 Variable memory set to   50000000 words,  buffer space   230000 words

 SETTING BASIS          =    CC-PVTZ-F12
 SETTING CHARGE         =     0.00000000D+00                                  
 SETTING SPIN           =     0.00000000D+00                                  


 Recomputing integrals since basis changed


 Using spherical harmonics

 Library entry O      S cc-pVTZ-F12          selected for orbital group  1
 Library entry O      P cc-pVTZ-F12          selected for orbital group  1
 Library entry O      D cc-pVTZ-F12          selected for orbital group  1
 Library entry O      F cc-pVTZ-F12          selected for orbital group  1
 Library entry H      S cc-pVTZ-F12          selected for orbital group  2
 Library entry H      P cc-pVTZ-F12          selected for orbital group  2
 Library entry H      D cc-pVTZ-F12          selected for orbital group  2


 PROGRAM * SEWARD (Integral evaluation for generally contracted gaussian basis sets)     Author: Roland Lindh, 1990

 Geometry written to block  1 of record 700


 Point group  C1  



 ATOMIC COORDINATES

 NR  ATOM    CHARGE       X              Y              Z

   1  O       8.00    0.000000000    0.000000000   -0.124238451
   2  H       1.00   -0.094486306    1.431390245    0.986041166
   3  H       1.00    0.000000000   -1.431390245    1.080527473

 Bond lengths in Bohr (Angstrom)

 1-2  1.813980850  1-3  1.870919283
     ( 0.959917327)     ( 0.990047848)

 Bond angles

  2-1-3  102.09732452

 NUCLEAR CHARGE:                   10
 NUMBER OF PRIMITIVE AOS:         114
 NUMBER OF SYMMETRY AOS:          103
 NUMBER OF CONTRACTIONS:           89   (  89A   )
 NUMBER OF CORE ORBITALS:           1   (   1A   )
 NUMBER OF VALENCE ORBITALS:        6   (   6A   )


 NUCLEAR REPULSION ENERGY    9.03509356

 Eigenvalues of metric

         1 0.227E-03 0.475E-03 0.580E-03 0.693E-03 0.717E-03 0.810E-03 0.161E-02 0.207E-02


 Contracted 2-electron integrals neglected if value below      1.0D-11

        5975460. INTEGRALS WRITTEN OUT IN    1460 BLOCKS ON RECORD 1290 OF FILE 1


 NUMBER OF SORTED TWO-ELECTRON INTEGRALS:    8022015.     BUFFER LENGTH:  32768
 NUMBER OF SEGMENTS:   1  SEGMENT LENGTH:    8022015      RECORD LENGTH: 524288

 Memory used in sort:       8.58 MW

 SORT1 READ     5975460. AND WROTE     5975460. INTEGRALS IN     18 RECORDS. CPU TIME:     0.18 SEC, REAL TIME:     0.25 SEC
 SORT2 READ     5975460. AND WROTE     8022015. INTEGRALS IN      1 RECORDS. CPU TIME:     0.15 SEC, REAL TIME:     0.21 SEC

 FILE SIZES:   FILE 1:   115.9 MBYTE,  FILE 4:    75.5 MBYTE,   TOTAL:    191.4 MBYTE

 OPERATOR DM      FOR CENTER  0  COORDINATES:    0.000000    0.000000    0.000000


 **********************************************************************************************************************************
 DATASETS  * FILE   NREC   LENGTH (MB)   RECORD NAMES
              1      19       70.79       500      610      700      900      950      970     1000      129      960     1100   
                                          VAR    BASINP    GEOM    SYMINP    ZMAT    AOBASIS   BASIS     P2S    ABASIS      S 
                                         1400     1410     1200     1210     1080     1600     1650     1300     1700   
                                           T        V       H0       H01     AOSYM     SMH    MOLCAS    ERIS     OPER   

 PROGRAMS   *        TOTAL       INT
 CPU TIMES  *         0.87      0.78
 REAL TIME  *         1.42 SEC
 DISK USED  *       191.74 MB      
 **********************************************************************************************************************************


 PROGRAM * RHF-SCF (CLOSED SHELL)       Authors: W. Meyer, H.-J. Werner


 NUMBER OF ELECTRONS:       5+    5-    SPACE SYMMETRY=1    SPIN SYMMETRY: Singlet 
 CONVERGENCE THRESHOLDS:    1.00E-05 (Density)    1.00E-07 (Energy)
 MAX. NUMBER OF ITERATIONS:       60
 INTERPOLATION TYPE:            DIIS
 INTERPOLATION STEPS:              2 (START)      1 (STEP)
 LEVEL SHIFTS:                  0.00 (CLOSED)  0.00 (OPEN) 



 Orbital guess generated from atomic densities. Full valence occupancy:    7

 Molecular orbital dump at record        2100.2

 Initial occupancy:   5

 ITERATION    DDIFF          GRAD             ENERGY        2-EL.EN.            DIPOLE MOMENTS         DIIS   ORB.
    1      0.000D+00      0.000D+00       -76.02381023     77.435657   -0.04791   -0.00956    1.18199    0    start
    2      0.000D+00      0.106D-01       -76.05098037     73.795580   -0.02822    0.00404    0.68797    1    diag
    3      0.112D-01      0.676D-02       -76.06259653     75.415650   -0.03322    0.00261    0.81174    2    diag
    4      0.389D-02      0.637D-03       -76.06279149     75.322853   -0.03309    0.00446    0.80694    3    diag
    5      0.558D-03      0.179D-03       -76.06281306     75.337937   -0.03304    0.00524    0.80523    4    diag
    6      0.204D-03      0.358D-04       -76.06281446     75.336858   -0.03304    0.00551    0.80481    5    diag
    7      0.580D-04      0.728D-05       -76.06281453     75.337006   -0.03303    0.00558    0.80467    6    diag
    8      0.127D-04      0.133D-05       -76.06281453     75.336993   -0.03303    0.00559    0.80464    7    diag
    9      0.236D-05      0.165D-06       -76.06281453     75.336978   -0.03303    0.00559    0.80463    0    orth

 Final occupancy:   5

 !RHF STATE 1.1 Energy                -76.062814531429
 Nuclear energy                         9.03509356
 One-electron energy                 -122.76639709
 Two-electron energy                   37.66848900
 Virial quotient                       -1.00171446
 !RHF STATE 1.1 Dipole moment          -0.03303217     0.00558593     0.80463244
 Dipole moment /Debye                  -0.08395390     0.01419709     2.04503771

 Orbital energies:

         1.1          2.1          3.1          4.1          5.1          6.1          7.1
    -20.569000    -1.345882    -0.703763    -0.586228    -0.509837     0.101444     0.121962

 HOMO      5.1    -0.509837 =     -13.8734eV
 LUMO      6.1     0.101444 =       2.7604eV
 LUMO-HOMO         0.611281 =      16.6338eV


 **********************************************************************************************************************************
 DATASETS  * FILE   NREC   LENGTH (MB)   RECORD NAMES
              1      19       70.79       500      610      700      900      950      970     1000      129      960     1100   
                                          VAR    BASINP    GEOM    SYMINP    ZMAT    AOBASIS   BASIS     P2S    ABASIS      S 
                                         1400     1410     1200     1210     1080     1600     1650     1300     1700   
                                           T        V       H0       H01     AOSYM     SMH    MOLCAS    ERIS     OPER   

              2       4        2.95       700     1000      520     2100   
                                         GEOM     BASIS   MCVARS     RHF  

 PROGRAMS   *        TOTAL        HF       INT
 CPU TIMES  *         1.59      0.72      0.78
 REAL TIME  *         2.30 SEC
 DISK USED  *       191.74 MB      
 **********************************************************************************************************************************


 PROGRAM * CCSD (Closed-shell coupled cluster)     Authors: C. Hampel, H.-J. Werner, 1991, M. Deegan, P.J. Knowles, 1992

                                  CCSD-F12 implementation by  H.-J. Werner, 2007

                   Density fitting integral evaluation by F.R. Manby, 2003,2007, G. Knizia, 2010

 Basis set AUG-CC-PVTZ/JKFIT generated.  Number of basis functions:   196 
 Basis set CC-PVTZ-F12/OPTRI generated.  Number of basis functions:   157 
 Basis set AUG-CC-PVTZ/MP2FIT generated. Number of basis functions:   198 

 Convergence thresholds:  THRVAR = 1.00D-08  THRDEN = 1.00D-06

 CCSD(T)     terms to be evaluated (factor= 1.000)


 Number of core orbitals:           1 (   1 )
 Number of closed-shell orbitals:   4 (   4 )
 Number of external orbitals:      84 (  84 )

 Molecular orbitals read from record     2100.2  Type=RHF/CANONICAL (state 1.1)

 MP2-F12 correlation treatment (H.-J. Werner, 2006)
 ==================================================

 Using MP2-F12 with ansatz 3C(FIX)

 Using projected zeroth-order Hamiltonian (+Z)

 FOCKRIB=T FOCKRIC=T FOCKRIP=T CABSP=T CABSA=T CABSK=T CABSF=T GBC=F EBC=F DMAT=T NOFIK=T NOPAO=1 SOLVE=-1  USEPAO=0
 EXCH_A= T EXCH_B= F EXCH_C= F EXCH_P= F
 
 Geminal basis:    OPTFULL  GEM_TYPE=SLATER  BETA=1.0  NGEM=6

 Optimizing Gaussian exponents for each gem_beta

 Geminal optimization for beta= 1.0000
 Weight function:   m=0, omega= 1.4646

 Augmented Hessian optimization of geminal fit. Trust ratio= 0.40000
 Convergence reached after   2 iterations. Final gradient= 8.41D-16, Step= 4.29D-06, Delta= 1.28D-09
 
 Alpha:                 0.19532     0.81920     2.85917     9.50073    35.69989   197.79328
 Coeff:                 0.27070     0.30552     0.18297     0.10986     0.06810     0.04224
 

 All pairs explicitly correlated. Number of r12-pairs:           10

 Excluding core orbitals from MO domains
 
 AO(A)-basis ORBITAL           loaded. Number of functions:      89
 RI(R)-basis CC-PVTZ-F12/OPTRI loaded. Number of functions:     157
 DF-basis AUG-CC-PVTZ/JKFIT    loaded. Number of functions:     196

 Screening thresholds:   THRAO=  1.00D-10  THRMO=  1.00D-09  THRPROD=  1.00D-09
                         THRSW=  1.00D-05  THROV=  1.00D-12  THRAOF12=   1.00D-08

 CPU time for Fock operators                      0.43 sec
 
 Construction of ABS:
 Smallest eigenvalue of S          8.10E-04  (threshold= 1.00E-08)
 Ratio eigmin/eigmax               1.36E-04  (threshold= 1.00E-09)
 Smallest eigenvalue of S kept     8.10E-04  (threshold= 8.10E-04, 0 functions deleted, 157 kept)
 
 Construction of CABS:
 Smallest eigenvalue of S          2.02E-06  (threshold= 1.00E-08)
 Ratio eigmin/eigmax               2.02E-06  (threshold= 1.00E-09)
 Smallest eigenvalue of S kept     2.02E-06  (threshold= 2.02E-06, 0 functions deleted, 157 kept)
 
 CPU time for CABS singles                        0.01 sec

 CABS-singles contribution of  -0.00097984 patched into reference energy.
 New reference energy         -76.06379437
 
 AO(A)-basis ORBITAL           loaded. Number of functions:      89
 RI(R)-basis CC-PVTZ-F12/OPTRI loaded. Number of functions:     157
 DF-basis AUG-CC-PVTZ/MP2FIT   loaded. Number of functions:     198

 Screening thresholds:   THRAO=  1.00D-10  THRMO=  1.00D-09  THRPROD=  1.00D-09
                         THRSW=  1.00D-05  THROV=  1.00D-12  THRAOF12=   1.00D-08

 CPU time for 3-index integral evaluation         0.57 sec
 CPU time for first  half transformation          0.05 sec ( 3527.2 MFLOP/sec)
 CPU time for sorting                             0.01 sec
 CPU time for fitting                             0.01 sec ( 8185.8 MFLOP/sec)
 CPU time for assembly                            0.03 sec (17837.5 MFLOP/sec)
 CPU time for tranop_f12                          0.03 sec (21731.0 MFLOP/sec)
 CPU time for f12 integrals (total)               0.78 sec, Elapsed time:      0.81 sec
 CPU time for f12 matrices (total)                0.01 sec, Elapsed time:      0.02 sec

 Diagonal F12 approximation with fixed coefficients:  TSING= 0.500,  TTRIP= 0.250 (scaled by -1/beta)

 DF-MP2-F12 energy corrections:
 ==============================
 Approx.                                    Singlet             Triplet             Total
 DF-MP2-F12/3*C(DX,FIX)                -0.025166528493     -0.003006702494     -0.028173230987
 DF-MP2-F12/3*C(FIX)                   -0.023392973086     -0.002721319416     -0.026114292502
 DF-MP2-F12/3C(FIX)                    -0.023316867530     -0.002817305110     -0.026134172640

 DF-MP2-F12 correlation energies:
 ================================
 Approx.                                    Singlet             Triplet             Ecorr            Total Energy
 DF-MP2                                -0.174836126816     -0.099747626886     -0.274583753702    -76.338378128327
 DF-MP2-F12/3*C(DX,FIX)                -0.200002655308     -0.102754329381     -0.302756984689    -76.366551359314
 DF-MP2-F12/3*C(FIX)                   -0.198229099902     -0.102468946302     -0.300698046204    -76.364492420829
 DF-MP2-F12/3C(FIX)                    -0.198152994345     -0.102564931997     -0.300717926342    -76.364512300967

 SCS-DF-MP2 energies (F_SING= 1.20000  F_TRIP= 0.62222  F_PARALLEL= 0.33333):
 ============================================================================
 SCS-DF-MP2                            -0.271868542241    -76.335662916867
 SCS-DF-MP2-F12/3*C(DX,FIX)            -0.303939213540    -76.367733588166
 SCS-DF-MP2-F12/3*C(FIX)               -0.301633375359    -76.365427749984
 SCS-DF-MP2-F12/3C(FIX)                -0.301601773123    -76.365396147749
 Symmetry transformation completed.

 Number of N-1 electron functions:               4
 Number of N-2 electron functions:              10
 Number of singly external CSFs:               336
 Number of doubly external CSFs:             56616
 Total number of CSFs:                       56953

 Length of J-op  integral file:               9.11 MB
 Length of K-op  integral file:              14.70 MB
 Length of 3-ext integral record:             0.00 MB

 Memory could be reduced to 4.35 Mwords without degradation in triples

 Integral transformation finished. Total CPU:   0.21 sec, npass=  1  Memory used:   2.09 MW

 Reference energy:                    -76.06379437

 Adding F12 terms to K(Cij), methodcc=6,  factor= 1.0

 ITER.      SQ.NORM     CORR.ENERGY   TOTAL ENERGY   ENERGY CHANGE        DEN1      VAR(S)    VAR(P)  DIIS     TIME  TIME/IT
   1      1.06255909    -0.27473089   -76.33852526    -0.00010437     0.00588185  0.76D-03  0.10D-02  1  1     1.65     0.16
   2      1.06593893    -0.27446970   -76.33826408     0.00026118    -0.00467120  0.14D-04  0.11D-03  2  2     1.79     0.17
   3      1.06714621    -0.27460339   -76.33839776    -0.00013369    -0.00081714  0.91D-05  0.72D-05  3  3     1.94     0.17
   4      1.06770143    -0.27462561   -76.33841998    -0.00002222    -0.00036304  0.44D-06  0.56D-06  4  4     2.09     0.17
   5      1.06779544    -0.27462403   -76.33841840     0.00000158    -0.00002068  0.13D-06  0.35D-07  5  5     2.25     0.17
   6      1.06782075    -0.27462269   -76.33841707     0.00000133    -0.00000422  0.11D-07  0.35D-08  6  6     2.41     0.17
   7      1.06782720    -0.27462230   -76.33841668     0.00000039    -0.00000147  0.96D-09  0.27D-09  6  1     2.56     0.17
   8      1.06782869    -0.27462236   -76.33841674    -0.00000006    -0.00000001  0.75D-10  0.29D-10  6  2     2.71     0.17

 Norm of t1 vector:      0.03618823      S-energy:    -0.00000012      T1 diagnostic:  0.00904706
                                                                       D1 diagnostic:  0.01818179

 Adding energy correction from Wij-K(Fij), methodcc=6  factor= 1.0
 
  CCSD correlation energy              -0.274622361972
  MP2-F12 correction (uncoupled)       -0.025008630833
  C*T doubles correction               -0.000842470863
  f12b correction                       0.004280841652


 Total CPU time for triples:      1.45 sec


 RESULTS
 =======

  Reference energy                    -76.062814531429
  F12 singles correction               -0.000979843196

 F12 singles corrections added to reference energy

  New reference energy                -76.063794374625

  F12a singlet correction              -0.023140074242
  F12a triplet correction              -0.002711027453
  F12a total correction                -0.025851101695

 F12a corrections for ansatz F12/3C(FIX) added to CCSD energy
 
  CCSD-F12a singlet pair energy        -0.209593456733
  CCSD-F12a triplet pair energy        -0.090879887945
  CCSD-F12a correlation energy         -0.300473463668

  Triples (T) contribution             -0.008904412701
  Total correlation energy             -0.309377876369

  CCSD-F12a total energy              -76.364267838293
  CCSD[T]-F12a energy                 -76.373479275509
  CCSD-T-F12a energy                  -76.373037469794
 !CCSD(T)-F12a total energy           -76.373172250994

 F12b corrections for ansatz F12/3C(FIX) added to CCSD(T)-F12a energy

  CCSD-F12b singlet pair energy        -0.205623455654
  CCSD-F12b triplet pair energy        -0.090569047372
  CCSD-F12b correlation energy         -0.296192622016

  Triples (T) contribution             -0.008904412701
  Total correlation energy             -0.305097034717

  CCSD-F12b total energy              -76.359986996642
  CCSD[T]-F12b energy                 -76.369198433857
  CCSD-T-F12b energy                  -76.368756628143
 !CCSD(T)-F12b total energy           -76.368891409342

 Timing summary (sec):

 STEP                 CPU(USER)    SYS     CPU(TOT)    WALL
 Transformation          0.21      0.03      0.24      0.27
 CCSD iterations         1.25      0.18      1.43      1.44
 Triples                 1.45      0.04      1.49      1.50
 MP2-F12                 1.25      0.06      1.31      1.32
 F12b energy             0.13      0.01      0.14      0.14

 Program statistics:

 Available memory in ccsd:                49999786
 Min. memory needed in ccsd:                269472
 Max. memory used in ccsd:                  308684
 Max. memory used in cckext:                227914 ( 9 integral passes)



 **********************************************************************************************************************************
 DATASETS  * FILE   NREC   LENGTH (MB)   RECORD NAMES
              1      20       81.47       500      610      700      900      950      970     1000      129      960     1100   
                                          VAR    BASINP    GEOM    SYMINP    ZMAT    AOBASIS   BASIS     P2S    ABASIS      S 
                                         1400     1410     1200     1210     1080     1600     1650     1300     1700     1380   
                                           T        V       H0       H01     AOSYM     SMH    MOLCAS    ERIS     OPER     JKOP   

              2       6        3.11       700     1000      520     2100     7360     7350   
                                         GEOM     BASIS   MCVARS     RHF    F12ABS    EF12   

 PROGRAMS   *        TOTAL   CCSD(T)        HF       INT
 CPU TIMES  *         5.92      4.33      0.72      0.78
 REAL TIME  *         7.07 SEC
 DISK USED  *       191.74 MB      
 **********************************************************************************************************************************

 CCSD(T)-F12/cc-pVTZ-F12 energy=    -76.368891409342

     CCSD(T)-F12        HF-SCF  
    -76.36889141    -76.06281453
 **********************************************************************************************************************************
 Molpro calculation terminated
 Variable memory released
