
 Primary working directories    : /tmp/r2518/22946.maple
 Secondary working directories  : /tmp/r2518/22946.maple
 Wavefunction directory         : /ddn/home1/r2518/wfu/
 Main file repository           : /tmp/r2518/22946.maple/

 SHA1      : d5ffa45e93fdbca01ffc919aa182cfdae0147319
 NAME      : 2015.1.35
 ARCHNAME  : linux/x86_64
 FC        : /opt/intel/composer_xe_2015.1.133/bin/intel64/ifort
 BLASLIB   : -Wl,-_start-group /opt/intel/mkl/lib/intel64/libmkl_intel_ilp64.a /opt/intel/mkl/lib/intel64/libmkl_intel_thread.a /opt/intel/mkl/lib/intel64/libmkl_core.a -Wl,-_end-group
 id        : olemiss

 Nodes     nprocs
 cn060        1

 Using customized tuning parameters: mindgm=1; mindgv=20; mindgc=4; mindgr=1; noblas=0; minvec=7
 default implementation of scratch files=df  

 memory,50,m
 nocompress;
 geomtyp=xyz
 angstrom
 geometry={
 O,0.0,0.0,-0.0657441568
 H,0.0,0.7074590973999999,0.5217905143
 H,0.0,-0.7074590973999999,0.5217905143
 }
 basis=cc-pVTZ-F12
 set,charge=0
 set,spin=0
 hf
 {CCSD(T)-F12}

 Variables initialized (889), CPU time= 0.00 sec
 Commands  initialized (702), CPU time= 0.00 sec, 572 directives.
 Default parameters read. Elapsed time= 0.08 sec

 Checking input...
 Passed
1


                                         ***  PROGRAM SYSTEM MOLPRO  ***
                                       Copyright, TTI GmbH Stuttgart, 2015
                                    Version 2015.1 linked Jul  9 2018 13:16:40


 **********************************************************************************************************************************
 LABEL *                                                                                 
  64 bit serial version                                                                  DATE: 28-Aug-19          TIME: 15:37:44  
 **********************************************************************************************************************************

 SHA1:             d5ffa45e93fdbca01ffc919aa182cfdae0147319
 **********************************************************************************************************************************

 Input parameters for SORTINT:

 COMPRESS =    0.000000
 C_FINAL  =    1.000000
 DEBUG    =   -1.000000
 C_SORT1  =    0.000000
 C_SEWARD =    0.000000
 THRESH   =    0.000000
 IO       =  molpro                                                          
 SPRI     =    0.000000
 SETTING GEOMTYP        =    XYZ
 ZUNIT=ANG
 

 Variable memory set to   50000000 words,  buffer space   230000 words

 SETTING BASIS          =    CC-PVTZ-F12
 SETTING CHARGE         =     0.00000000D+00                                  
 SETTING SPIN           =     0.00000000D+00                                  


 Recomputing integrals since basis changed


 Using spherical harmonics

 Library entry O      S cc-pVTZ-F12          selected for orbital group  1
 Library entry O      P cc-pVTZ-F12          selected for orbital group  1
 Library entry O      D cc-pVTZ-F12          selected for orbital group  1
 Library entry O      F cc-pVTZ-F12          selected for orbital group  1
 Library entry H      S cc-pVTZ-F12          selected for orbital group  2
 Library entry H      P cc-pVTZ-F12          selected for orbital group  2
 Library entry H      D cc-pVTZ-F12          selected for orbital group  2


 PROGRAM * SEWARD (Integral evaluation for generally contracted gaussian basis sets)     Author: Roland Lindh, 1990

 Geometry written to block  1 of record 700


 Point group  C2v 



 ATOMIC COORDINATES

 NR  ATOM    CHARGE       X              Y              Z

   1  O       8.00    0.000000000    0.000000000   -0.124238451
   2  H       1.00    0.000000000    1.336903938    0.986041166
   3  H       1.00    0.000000000   -1.336903938    0.986041166

 Bond lengths in Bohr (Angstrom)

 1-2  1.737824205  1-3  1.737824205
     ( 0.919616966)     ( 0.919616966)

 Bond angles

  2-1-3  100.58170620

 NUCLEAR CHARGE:                   10
 NUMBER OF PRIMITIVE AOS:         114
 NUMBER OF SYMMETRY AOS:          103
 NUMBER OF CONTRACTIONS:           89   (  35A1  +  18B1  +  26B2  +  10A2  )
 NUMBER OF CORE ORBITALS:           1   (   1A1  +   0B1  +   0B2  +   0A2  )
 NUMBER OF VALENCE ORBITALS:        6   (   3A1  +   1B1  +   2B2  +   0A2  )


 NUCLEAR REPULSION ENERGY    9.58091360

 Eigenvalues of metric

         1 0.186E-03 0.560E-03 0.700E-03 0.148E-02 0.194E-02 0.331E-02 0.654E-02 0.143E-01
         2 0.686E-03 0.814E-02 0.426E-01 0.827E-01 0.121E+00 0.209E+00 0.242E+00 0.357E+00
         3 0.415E-03 0.761E-03 0.192E-02 0.405E-02 0.754E-02 0.974E-02 0.159E-01 0.414E-01
         4 0.695E-02 0.855E-01 0.179E+00 0.310E+00 0.363E+00 0.552E+00 0.852E+00 0.124E+01


 Contracted 2-electron integrals neglected if value below      1.0D-11

        1872804. INTEGRALS WRITTEN OUT IN     458 BLOCKS ON RECORD 1290 OF FILE 1


 NUMBER OF SORTED TWO-ELECTRON INTEGRALS:    2124910.     BUFFER LENGTH:  32768
 NUMBER OF SEGMENTS:   1  SEGMENT LENGTH:    2124910      RECORD LENGTH: 524288

 Memory used in sort:       2.68 MW

 SORT1 READ     1872804. AND WROTE     1933138. INTEGRALS IN      6 RECORDS. CPU TIME:     0.08 SEC, REAL TIME:     0.10 SEC
 SORT2 READ     1933138. AND WROTE     2124910. INTEGRALS IN      1 RECORDS. CPU TIME:     0.11 SEC, REAL TIME:     0.12 SEC

 FILE SIZES:   FILE 1:    50.1 MBYTE,  FILE 4:    25.2 MBYTE,   TOTAL:     75.3 MBYTE

 OPERATOR DM      FOR CENTER  0  COORDINATES:    0.000000    0.000000    0.000000


 **********************************************************************************************************************************
 DATASETS  * FILE   NREC   LENGTH (MB)   RECORD NAMES
              1      19       35.96       500      610      700      900      950      970     1000      129      960     1100   
                                          VAR    BASINP    GEOM    SYMINP    ZMAT    AOBASIS   BASIS     P2S    ABASIS      S 
                                         1400     1410     1200     1210     1080     1600     1650     1300     1700   
                                           T        V       H0       H01     AOSYM     SMH    MOLCAS    ERIS     OPER   

 PROGRAMS   *        TOTAL       INT
 CPU TIMES  *         0.56      0.47
 REAL TIME  *         1.62 SEC
 DISK USED  *        75.63 MB      
 **********************************************************************************************************************************


 PROGRAM * RHF-SCF (CLOSED SHELL)       Authors: W. Meyer, H.-J. Werner


 NUMBER OF ELECTRONS:       5+    5-
 CONVERGENCE THRESHOLDS:    1.00E-05 (Density)    1.00E-07 (Energy)
 MAX. NUMBER OF ITERATIONS:       60
 INTERPOLATION TYPE:            DIIS
 INTERPOLATION STEPS:              2 (START)      1 (STEP)
 LEVEL SHIFTS:                  0.00 (CLOSED)  0.00 (OPEN) 



 Orbital guess generated from atomic densities. Full valence occupancy:    4   1   2   0

 Molecular orbital dump at record        2100.2

 Initial occupancy:   3   1   1   0

 ITERATION    DDIFF          GRAD             ENERGY        2-EL.EN.            DIPOLE MOMENTS         DIIS   ORB.
    1      0.000D+00      0.000D+00       -76.02573573     78.216818    0.00000    0.00000    1.12569    0    start
    2      0.000D+00      0.187D-01       -76.05333364     74.726477    0.00000    0.00000    0.68780    1    diag
    3      0.211D-01      0.112D-01       -76.06359252     76.236593    0.00000    0.00000    0.79692    2    diag
    4      0.682D-02      0.107D-02       -76.06376157     76.148998    0.00000    0.00000    0.79554    3    diag
    5      0.102D-02      0.274D-03       -76.06377664     76.162254    0.00000    0.00000    0.79514    4    diag
    6      0.341D-03      0.491D-04       -76.06377741     76.161570    0.00000    0.00000    0.79520    5    diag
    7      0.924D-04      0.897D-05       -76.06377744     76.161680    0.00000    0.00000    0.79518    6    diag
    8      0.176D-04      0.182D-05       -76.06377744     76.161676    0.00000    0.00000    0.79516    7    diag
    9      0.315D-05      0.209D-06       -76.06377744     76.161664    0.00000    0.00000    0.79516    0    orth

 Final occupancy:   3   1   1   0

 !RHF STATE 1.1 Energy                -76.063777436606
 Nuclear energy                         9.58091360
 One-electron energy                 -123.72552309
 Two-electron energy                   38.08083206
 Virial quotient                       -0.99873512
 !RHF STATE 1.1 Dipole moment           0.00000000     0.00000000     0.79516194
 Dipole moment /Debye                   0.00000000     0.00000000     2.02096769

 Orbital energies:

         1.1          2.1          3.1          4.1          5.1
    -20.559609    -1.376632    -0.600140     0.098604     0.148081

         1.2          2.2          3.2
     -0.514868     0.144662     0.505969

         1.3          2.3          3.3
     -0.730680     0.120848     0.228818

         1.4          2.4
      0.486039     1.299462

 HOMO      1.2    -0.514868 =     -14.0103eV
 LUMO      4.1     0.098604 =       2.6831eV
 LUMO-HOMO         0.613472 =      16.6934eV


 **********************************************************************************************************************************
 DATASETS  * FILE   NREC   LENGTH (MB)   RECORD NAMES
              1      19       35.96       500      610      700      900      950      970     1000      129      960     1100   
                                          VAR    BASINP    GEOM    SYMINP    ZMAT    AOBASIS   BASIS     P2S    ABASIS      S 
                                         1400     1410     1200     1210     1080     1600     1650     1300     1700   
                                           T        V       H0       H01     AOSYM     SMH    MOLCAS    ERIS     OPER   

              2       4        2.84       700     1000      520     2100   
                                         GEOM     BASIS   MCVARS     RHF  

 PROGRAMS   *        TOTAL        HF       INT
 CPU TIMES  *         0.69      0.13      0.47
 REAL TIME  *         1.77 SEC
 DISK USED  *        75.63 MB      
 **********************************************************************************************************************************


 PROGRAM * CCSD (Closed-shell coupled cluster)     Authors: C. Hampel, H.-J. Werner, 1991, M. Deegan, P.J. Knowles, 1992

                                  CCSD-F12 implementation by  H.-J. Werner, 2007

                   Density fitting integral evaluation by F.R. Manby, 2003,2007, G. Knizia, 2010

 Basis set AUG-CC-PVTZ/JKFIT generated.  Number of basis functions:   196 
 Basis set CC-PVTZ-F12/OPTRI generated.  Number of basis functions:   157 
 Basis set AUG-CC-PVTZ/MP2FIT generated. Number of basis functions:   198 

 Convergence thresholds:  THRVAR = 1.00D-08  THRDEN = 1.00D-06

 CCSD(T)     terms to be evaluated (factor= 1.000)


 Number of core orbitals:           1 (   1   0   0   0 )
 Number of closed-shell orbitals:   4 (   2   1   1   0 )
 Number of external orbitals:      84 (  32  17  25  10 )

 Molecular orbitals read from record     2100.2  Type=RHF/CANONICAL (state 1.1)

 MP2-F12 correlation treatment (H.-J. Werner, 2006)
 ==================================================

 Using MP2-F12 with ansatz 3C(FIX)

 Using projected zeroth-order Hamiltonian (+Z)

 FOCKRIB=T FOCKRIC=T FOCKRIP=T CABSP=T CABSA=T CABSK=T CABSF=T GBC=F EBC=F DMAT=T NOFIK=T NOPAO=1 SOLVE=-1  USEPAO=0
 EXCH_A= T EXCH_B= F EXCH_C= F EXCH_P= F
 
 Geminal basis:    OPTFULL  GEM_TYPE=SLATER  BETA=1.0  NGEM=6

 Optimizing Gaussian exponents for each gem_beta

 Geminal optimization for beta= 1.0000
 Weight function:   m=0, omega= 1.4646

 Augmented Hessian optimization of geminal fit. Trust ratio= 0.40000
 Convergence reached after   2 iterations. Final gradient= 8.41D-16, Step= 4.29D-06, Delta= 1.28D-09
 
 Alpha:                 0.19532     0.81920     2.85917     9.50073    35.69989   197.79328
 Coeff:                 0.27070     0.30552     0.18297     0.10986     0.06810     0.04224
 

 Symmetry turned off. Reference energy:        -76.063777436606

 All pairs explicitly correlated. Number of r12-pairs:           10

 Excluding core orbitals from MO domains
 
 AO(A)-basis ORBITAL           loaded. Number of functions:      89
 RI(R)-basis CC-PVTZ-F12/OPTRI loaded. Number of functions:     157
 DF-basis AUG-CC-PVTZ/JKFIT    loaded. Number of functions:     196

 Screening thresholds:   THRAO=  1.00D-10  THRMO=  1.00D-09  THRPROD=  1.00D-09
                         THRSW=  1.00D-05  THROV=  1.00D-12  THRAOF12=   1.00D-08

 CPU time for Fock operators                      1.11 sec
 
 Construction of ABS:
 Smallest eigenvalue of S          6.79E-04  (threshold= 1.00E-08)
 Ratio eigmin/eigmax               1.11E-04  (threshold= 1.00E-09)
 Smallest eigenvalue of S kept     6.79E-04  (threshold= 6.79E-04, 0 functions deleted, 157 kept)
 
 Construction of CABS:
 Smallest eigenvalue of S          1.48E-06  (threshold= 1.00E-08)
 Ratio eigmin/eigmax               1.48E-06  (threshold= 1.00E-09)
 Smallest eigenvalue of S kept     1.48E-06  (threshold= 1.48E-06, 0 functions deleted, 157 kept)
 
 CPU time for CABS singles                        0.01 sec

 CABS-singles contribution of  -0.00109263 patched into reference energy.
 New reference energy         -76.06487007
 
 AO(A)-basis ORBITAL           loaded. Number of functions:      89
 RI(R)-basis CC-PVTZ-F12/OPTRI loaded. Number of functions:     157
 DF-basis AUG-CC-PVTZ/MP2FIT   loaded. Number of functions:     198

 Screening thresholds:   THRAO=  1.00D-10  THRMO=  1.00D-09  THRPROD=  1.00D-09
                         THRSW=  1.00D-05  THROV=  1.00D-12  THRAOF12=   1.00D-08

 CPU time for 3-index integral evaluation         0.57 sec
 CPU time for first  half transformation          0.06 sec ( 2939.3 MFLOP/sec)
 CPU time for assembly                            0.02 sec (26756.3 MFLOP/sec)
 CPU time for tranop_f12                          0.02 sec (32596.5 MFLOP/sec)
 CPU time for f12 integrals (total)               1.58 sec, Elapsed time:      1.65 sec
 CPU time for f12 matrices (total)                0.01 sec, Elapsed time:      0.01 sec

 Diagonal F12 approximation with fixed coefficients:  TSING= 0.500,  TTRIP= 0.250 (scaled by -1/beta)

 DF-MP2-F12 energy corrections:
 ==============================
 Approx.                                    Singlet             Triplet             Total
 DF-MP2-F12/3*C(DX,FIX)                -0.025490020834     -0.003067835280     -0.028557856114
 DF-MP2-F12/3*C(FIX)                   -0.023624702378     -0.002765124525     -0.026389826904
 DF-MP2-F12/3C(FIX)                    -0.023543164433     -0.002861529193     -0.026404693626

 DF-MP2-F12 correlation energies:
 ================================
 Approx.                                    Singlet             Triplet             Ecorr            Total Energy
 DF-MP2                                -0.171989852685     -0.098302436019     -0.270292288703    -76.335162355040
 DF-MP2-F12/3*C(DX,FIX)                -0.197479873518     -0.101370271299     -0.298850144818    -76.363720211154
 DF-MP2-F12/3*C(FIX)                   -0.195614555063     -0.101067560544     -0.296682115607    -76.361552181944
 DF-MP2-F12/3C(FIX)                    -0.195533017118     -0.101163965212     -0.296696982330    -76.361567048666

 SCS-DF-MP2 energies (F_SING= 1.20000  F_TRIP= 0.62222  F_PARALLEL= 0.33333):
 ============================================================================
 SCS-DF-MP2                            -0.267553783411    -76.332423849747
 SCS-DF-MP2-F12/3*C(DX,FIX)            -0.300050683697    -76.364920750033
 SCS-DF-MP2-F12/3*C(FIX)               -0.297623948192    -76.362494014529
 SCS-DF-MP2-F12/3C(FIX)                -0.297586087785    -76.362456154121

 Symmetry restored.
 Symmetry transformation completed.

 Number of N-1 electron functions:               4
 Number of N-2 electron functions:              10
 Number of singly external CSFs:               106
 Number of doubly external CSFs:             14828
 Total number of CSFs:                       14935

 Length of J-op  integral file:               8.86 MB
 Length of K-op  integral file:              13.00 MB
 Length of 3-ext integral record:             0.00 MB

 Memory could be reduced to 1.33 Mwords without degradation in triples

 Integral transformation finished. Total CPU:   0.03 sec, npass=  1  Memory used:   0.24 MW

 Reference energy:                    -76.06487007

 Adding F12 terms to K(Cij), methodcc=6,  factor= 1.0

 ITER.      SQ.NORM     CORR.ENERGY   TOTAL ENERGY   ENERGY CHANGE        DEN1      VAR(S)    VAR(P)  DIIS     TIME  TIME/IT
   1      1.05919284    -0.27099916   -76.33586923    -0.00066549     0.00470252  0.64D-03  0.85D-03  1  1     2.97     0.03
   2      1.06205448    -0.27070897   -76.33557903     0.00029019    -0.00419366  0.11D-04  0.85D-04  2  2     2.99     0.03
   3      1.06299974    -0.27081400   -76.33568406    -0.00010503    -0.00069161  0.71D-05  0.52D-05  3  3     3.02     0.03
   4      1.06341968    -0.27083243   -76.33570250    -0.00001844    -0.00029362  0.35D-06  0.40D-06  4  4     3.05     0.03
   5      1.06349082    -0.27083093   -76.33570099     0.00000151    -0.00001531  0.93D-07  0.24D-07  5  5     3.08     0.03
   6      1.06350993    -0.27082981   -76.33569987     0.00000112    -0.00000306  0.81D-08  0.23D-08  6  6     3.11     0.04
   7      1.06351492    -0.27082948   -76.33569954     0.00000033    -0.00000117  0.64D-09  0.18D-09  6  1     3.14     0.04
   8      1.06351605    -0.27082953   -76.33569960    -0.00000005    -0.00000000  0.43D-10  0.17D-10  6  2     3.17     0.04

 Norm of t1 vector:      0.03270038      S-energy:    -0.00000008      T1 diagnostic:  0.00817510
                                                                       D1 diagnostic:  0.01623328

 Adding energy correction from Wij-K(Fij), methodcc=6  factor= 1.0
 
  CCSD correlation energy              -0.270829531529
  MP2-F12 correction (uncoupled)       -0.025291583585
  C*T doubles correction               -0.000844470414
  f12b correction                       0.004251783545


 Total CPU time for triples:      0.12 sec


 RESULTS
 =======

  Reference energy                    -76.063777436606
  F12 singles correction               -0.001092629731

 F12 singles corrections added to reference energy

  New reference energy                -76.064870066336

  F12a singlet correction              -0.023380512644
  F12a triplet correction              -0.002755541356
  F12a total correction                -0.026136053999

 F12a corrections for ansatz F12/3C(FIX) added to CCSD energy
 
  CCSD-F12a singlet pair energy        -0.206403476793
  CCSD-F12a triplet pair energy        -0.090562031532
  CCSD-F12a correlation energy         -0.296965585528

  Triples (T) contribution             -0.008359660854
  Total correlation energy             -0.305325246382

  CCSD-F12a total energy              -76.361835651865
  CCSD[T]-F12a energy                 -76.370457653784
  CCSD-T-F12a energy                  -76.370082404826
 !CCSD(T)-F12a total energy           -76.370195312719

 F12b corrections for ansatz F12/3C(FIX) added to CCSD(T)-F12a energy

  CCSD-F12b singlet pair energy        -0.202465169566
  CCSD-F12b triplet pair energy        -0.090248555213
  CCSD-F12b correlation energy         -0.292713801983

  Triples (T) contribution             -0.008359660854
  Total correlation energy             -0.301073462837

  CCSD-F12b total energy              -76.357583868320
  CCSD[T]-F12b energy                 -76.366205870239
  CCSD-T-F12b energy                  -76.365830621281
 !CCSD(T)-F12b total energy           -76.365943529173

 Timing summary (sec):

 STEP                 CPU(USER)    SYS     CPU(TOT)    WALL
 Transformation          0.04      0.00      0.04      0.04
 CCSD iterations         0.29      0.07      0.36      0.35
 Triples                 0.12      0.00      0.12      0.12
 MP2-F12                 2.85      0.10      2.95      2.96
 F12b energy             0.02      0.00      0.02      0.03

 Program statistics:

 Available memory in ccsd:                49999786
 Min. memory needed in ccsd:                 74516
 Max. memory used in ccsd:                   84748
 Max. memory used in cckext:                120394 ( 9 integral passes)



 **********************************************************************************************************************************
 DATASETS  * FILE   NREC   LENGTH (MB)   RECORD NAMES
              1      20       38.72       500      610      700      900      950      970     1000      129      960     1100   
                                          VAR    BASINP    GEOM    SYMINP    ZMAT    AOBASIS   BASIS     P2S    ABASIS      S 
                                         1400     1410     1200     1210     1080     1600     1650     1300     1700     1380   
                                           T        V       H0       H01     AOSYM     SMH    MOLCAS    ERIS     OPER     JKOP   

              2       6        2.89       700     1000      520     2100     7360     7350   
                                         GEOM     BASIS   MCVARS     RHF    F12ABS    EF12   

 PROGRAMS   *        TOTAL   CCSD(T)        HF       INT
 CPU TIMES  *         4.03      3.34      0.13      0.47
 REAL TIME  *         5.66 SEC
 DISK USED  *        78.37 MB      
 **********************************************************************************************************************************

 CCSD(T)-F12/cc-pVTZ-F12 energy=    -76.365943529173

     CCSD(T)-F12        HF-SCF  
    -76.36594353    -76.06377744
 **********************************************************************************************************************************
 Molpro calculation terminated
 Variable memory released
