
 Primary working directories    : /tmp/r2518/22907.maple
 Secondary working directories  : /tmp/r2518/22907.maple
 Wavefunction directory         : /ddn/home1/r2518/wfu/
 Main file repository           : /tmp/r2518/22907.maple/

 SHA1      : d5ffa45e93fdbca01ffc919aa182cfdae0147319
 NAME      : 2015.1.35
 ARCHNAME  : linux/x86_64
 FC        : /opt/intel/composer_xe_2015.1.133/bin/intel64/ifort
 BLASLIB   : -Wl,-_start-group /opt/intel/mkl/lib/intel64/libmkl_intel_ilp64.a /opt/intel/mkl/lib/intel64/libmkl_intel_thread.a /opt/intel/mkl/lib/intel64/libmkl_core.a -Wl,-_end-group
 id        : olemiss

 Nodes     nprocs
 cn031        1

 Using customized tuning parameters: mindgm=1; mindgv=20; mindgc=4; mindgr=1; noblas=0; minvec=7
 default implementation of scratch files=df  

 memory,50,m
 nocompress;
 geomtyp=xyz
 angstrom
 geometry={
 O,0.05,0.0,-0.0657441568
 H,0.0,0.7574590974,0.5217905143
 H,0.0,-0.7574590974,0.4717905143
 }
 basis=cc-pVTZ-F12
 set,charge=0
 set,spin=0
 hf
 {CCSD(T)-F12}

 Variables initialized (889), CPU time= 0.01 sec
 Commands  initialized (702), CPU time= 0.00 sec, 572 directives.
 Default parameters read. Elapsed time= 0.06 sec

 Checking input...
 Passed
1


                                         ***  PROGRAM SYSTEM MOLPRO  ***
                                       Copyright, TTI GmbH Stuttgart, 2015
                                    Version 2015.1 linked Jul  9 2018 13:16:40


 **********************************************************************************************************************************
 LABEL *                                                                                 
  64 bit serial version                                                                  DATE: 28-Aug-19          TIME: 15:37:34  
 **********************************************************************************************************************************

 SHA1:             d5ffa45e93fdbca01ffc919aa182cfdae0147319
 **********************************************************************************************************************************

 Input parameters for SORTINT:

 COMPRESS =    0.000000
 C_FINAL  =    1.000000
 DEBUG    =   -1.000000
 C_SORT1  =    0.000000
 C_SEWARD =    0.000000
 THRESH   =    0.000000
 IO       =  molpro                                                          
 SPRI     =    0.000000
 SETTING GEOMTYP        =    XYZ
 ZUNIT=ANG
 

 Variable memory set to   50000000 words,  buffer space   230000 words

 SETTING BASIS          =    CC-PVTZ-F12
 SETTING CHARGE         =     0.00000000D+00                                  
 SETTING SPIN           =     0.00000000D+00                                  


 Recomputing integrals since basis changed


 Using spherical harmonics

 Library entry O      S cc-pVTZ-F12          selected for orbital group  1
 Library entry O      P cc-pVTZ-F12          selected for orbital group  1
 Library entry O      D cc-pVTZ-F12          selected for orbital group  1
 Library entry O      F cc-pVTZ-F12          selected for orbital group  1
 Library entry H      S cc-pVTZ-F12          selected for orbital group  2
 Library entry H      P cc-pVTZ-F12          selected for orbital group  2
 Library entry H      D cc-pVTZ-F12          selected for orbital group  2


 PROGRAM * SEWARD (Integral evaluation for generally contracted gaussian basis sets)     Author: Roland Lindh, 1990

 Geometry written to block  1 of record 700


 Point group  C1  



 ATOMIC COORDINATES

 NR  ATOM    CHARGE       X              Y              Z

   1  O       8.00    0.094486306    0.000000000   -0.124238451
   2  H       1.00    0.000000000    1.431390245    0.986041166
   3  H       1.00    0.000000000   -1.431390245    0.891554860

 Bond lengths in Bohr (Angstrom)

 1-2  1.813980850  1-3  1.757737678
     ( 0.959917327)     ( 0.930154722)

 Bond angles

  2-1-3  106.62283429

 NUCLEAR CHARGE:                   10
 NUMBER OF PRIMITIVE AOS:         114
 NUMBER OF SYMMETRY AOS:          103
 NUMBER OF CONTRACTIONS:           89   (  89A   )
 NUMBER OF CORE ORBITALS:           1   (   1A   )
 NUMBER OF VALENCE ORBITALS:        6   (   6A   )


 NUCLEAR REPULSION ENERGY    9.31061537

 Eigenvalues of metric

         1 0.203E-03 0.431E-03 0.568E-03 0.689E-03 0.706E-03 0.784E-03 0.156E-02 0.197E-02


 Contracted 2-electron integrals neglected if value below      1.0D-11

        6974237. INTEGRALS WRITTEN OUT IN    1704 BLOCKS ON RECORD 1290 OF FILE 1


 NUMBER OF SORTED TWO-ELECTRON INTEGRALS:    8022015.     BUFFER LENGTH:  32768
 NUMBER OF SEGMENTS:   1  SEGMENT LENGTH:    8022015      RECORD LENGTH: 524288

 Memory used in sort:       8.58 MW

 SORT1 READ     6974237. AND WROTE     6974237. INTEGRALS IN     20 RECORDS. CPU TIME:     0.20 SEC, REAL TIME:     0.27 SEC
 SORT2 READ     6974237. AND WROTE     8022015. INTEGRALS IN      1 RECORDS. CPU TIME:     0.12 SEC, REAL TIME:     0.19 SEC

 FILE SIZES:   FILE 1:   131.9 MBYTE,  FILE 4:    83.9 MBYTE,   TOTAL:    215.8 MBYTE

 OPERATOR DM      FOR CENTER  0  COORDINATES:    0.000000    0.000000    0.000000


 **********************************************************************************************************************************
 DATASETS  * FILE   NREC   LENGTH (MB)   RECORD NAMES
              1      19       79.03       500      610      700      900      950      970     1000      129      960     1100   
                                          VAR    BASINP    GEOM    SYMINP    ZMAT    AOBASIS   BASIS     P2S    ABASIS      S 
                                         1400     1410     1200     1210     1080     1600     1650     1300     1700   
                                           T        V       H0       H01     AOSYM     SMH    MOLCAS    ERIS     OPER   

 PROGRAMS   *        TOTAL       INT
 CPU TIMES  *         0.83      0.74
 REAL TIME  *         1.33 SEC
 DISK USED  *       216.12 MB      
 **********************************************************************************************************************************


 PROGRAM * RHF-SCF (CLOSED SHELL)       Authors: W. Meyer, H.-J. Werner


 NUMBER OF ELECTRONS:       5+    5-    SPACE SYMMETRY=1    SPIN SYMMETRY: Singlet 
 CONVERGENCE THRESHOLDS:    1.00E-05 (Density)    1.00E-07 (Energy)
 MAX. NUMBER OF ITERATIONS:       60
 INTERPOLATION TYPE:            DIIS
 INTERPOLATION STEPS:              2 (START)      1 (STEP)
 LEVEL SHIFTS:                  0.00 (CLOSED)  0.00 (OPEN) 



 Orbital guess generated from atomic densities. Full valence occupancy:    7

 Molecular orbital dump at record        2100.2

 Initial occupancy:   5

 ITERATION    DDIFF          GRAD             ENERGY        2-EL.EN.            DIPOLE MOMENTS         DIIS   ORB.
    1      0.000D+00      0.000D+00       -76.02775369     77.863670   -0.09703    0.00964    1.09197    0    start
    2      0.000D+00      0.106D-01       -76.05458383     74.308720   -0.05885   -0.00362    0.66199    1    diag
    3      0.112D-01      0.650D-02       -76.06517105     75.857464   -0.06821   -0.00230    0.76734    2    diag
    4      0.377D-02      0.615D-03       -76.06535005     75.768249   -0.06798   -0.00398    0.76466    3    diag
    5      0.556D-03      0.162D-03       -76.06536668     75.781272   -0.06789   -0.00463    0.76361    4    diag
    6      0.186D-03      0.302D-04       -76.06536762     75.780460   -0.06787   -0.00484    0.76342    5    diag
    7      0.528D-04      0.574D-05       -76.06536766     75.780595   -0.06786   -0.00489    0.76333    6    diag
    8      0.111D-04      0.121D-05       -76.06536766     75.780588   -0.06786   -0.00490    0.76329    7    diag
    9      0.202D-05      0.158D-06       -76.06536766     75.780577   -0.06786   -0.00490    0.76328    0    orth

 Final occupancy:   5

 !RHF STATE 1.1 Energy                -76.065367662187
 Nuclear energy                         9.31061537
 One-electron energy                 -123.26627151
 Two-electron energy                   37.89028847
 Virial quotient                       -1.00031181
 !RHF STATE 1.1 Dipole moment          -0.06785757    -0.00490215     0.76328297
 Dipole moment /Debye                  -0.17246545    -0.01245920     1.93994472

 Orbital energies:

         1.1          2.1          3.1          4.1          5.1          6.1          7.1
    -20.561759    -1.358084    -0.728896    -0.583149    -0.510960     0.102075     0.119589

 HOMO      5.1    -0.510960 =     -13.9039eV
 LUMO      6.1     0.102075 =       2.7776eV
 LUMO-HOMO         0.613035 =      16.6815eV


 **********************************************************************************************************************************
 DATASETS  * FILE   NREC   LENGTH (MB)   RECORD NAMES
              1      19       79.03       500      610      700      900      950      970     1000      129      960     1100   
                                          VAR    BASINP    GEOM    SYMINP    ZMAT    AOBASIS   BASIS     P2S    ABASIS      S 
                                         1400     1410     1200     1210     1080     1600     1650     1300     1700   
                                           T        V       H0       H01     AOSYM     SMH    MOLCAS    ERIS     OPER   

              2       4        2.95       700     1000      520     2100   
                                         GEOM     BASIS   MCVARS     RHF  

 PROGRAMS   *        TOTAL        HF       INT
 CPU TIMES  *         1.44      0.61      0.74
 REAL TIME  *         2.11 SEC
 DISK USED  *       216.12 MB      
 **********************************************************************************************************************************


 PROGRAM * CCSD (Closed-shell coupled cluster)     Authors: C. Hampel, H.-J. Werner, 1991, M. Deegan, P.J. Knowles, 1992

                                  CCSD-F12 implementation by  H.-J. Werner, 2007

                   Density fitting integral evaluation by F.R. Manby, 2003,2007, G. Knizia, 2010

 Basis set AUG-CC-PVTZ/JKFIT generated.  Number of basis functions:   196 
 Basis set CC-PVTZ-F12/OPTRI generated.  Number of basis functions:   157 
 Basis set AUG-CC-PVTZ/MP2FIT generated. Number of basis functions:   198 

 Convergence thresholds:  THRVAR = 1.00D-08  THRDEN = 1.00D-06

 CCSD(T)     terms to be evaluated (factor= 1.000)


 Number of core orbitals:           1 (   1 )
 Number of closed-shell orbitals:   4 (   4 )
 Number of external orbitals:      84 (  84 )

 Molecular orbitals read from record     2100.2  Type=RHF/CANONICAL (state 1.1)

 MP2-F12 correlation treatment (H.-J. Werner, 2006)
 ==================================================

 Using MP2-F12 with ansatz 3C(FIX)

 Using projected zeroth-order Hamiltonian (+Z)

 FOCKRIB=T FOCKRIC=T FOCKRIP=T CABSP=T CABSA=T CABSK=T CABSF=T GBC=F EBC=F DMAT=T NOFIK=T NOPAO=1 SOLVE=-1  USEPAO=0
 EXCH_A= T EXCH_B= F EXCH_C= F EXCH_P= F
 
 Geminal basis:    OPTFULL  GEM_TYPE=SLATER  BETA=1.0  NGEM=6

 Optimizing Gaussian exponents for each gem_beta

 Geminal optimization for beta= 1.0000
 Weight function:   m=0, omega= 1.4646

 Augmented Hessian optimization of geminal fit. Trust ratio= 0.40000
 Convergence reached after   2 iterations. Final gradient= 8.41D-16, Step= 4.29D-06, Delta= 1.28D-09
 
 Alpha:                 0.19532     0.81920     2.85917     9.50073    35.69989   197.79328
 Coeff:                 0.27070     0.30552     0.18297     0.10986     0.06810     0.04224
 

 All pairs explicitly correlated. Number of r12-pairs:           10

 Excluding core orbitals from MO domains
 
 AO(A)-basis ORBITAL           loaded. Number of functions:      89
 RI(R)-basis CC-PVTZ-F12/OPTRI loaded. Number of functions:     157
 DF-basis AUG-CC-PVTZ/JKFIT    loaded. Number of functions:     196

 Screening thresholds:   THRAO=  1.00D-10  THRMO=  1.00D-09  THRPROD=  1.00D-09
                         THRSW=  1.00D-05  THROV=  1.00D-12  THRAOF12=   1.00D-08

 CPU time for Fock operators                      0.37 sec
 
 Construction of ABS:
 Smallest eigenvalue of S          7.28E-04  (threshold= 1.00E-08)
 Ratio eigmin/eigmax               1.21E-04  (threshold= 1.00E-09)
 Smallest eigenvalue of S kept     7.28E-04  (threshold= 7.28E-04, 0 functions deleted, 157 kept)
 
 Construction of CABS:
 Smallest eigenvalue of S          1.72E-06  (threshold= 1.00E-08)
 Ratio eigmin/eigmax               1.72E-06  (threshold= 1.00E-09)
 Smallest eigenvalue of S kept     1.72E-06  (threshold= 1.72E-06, 0 functions deleted, 157 kept)
 
 CPU time for CABS singles                        0.01 sec

 CABS-singles contribution of  -0.00103398 patched into reference energy.
 New reference energy         -76.06640164
 
 AO(A)-basis ORBITAL           loaded. Number of functions:      89
 RI(R)-basis CC-PVTZ-F12/OPTRI loaded. Number of functions:     157
 DF-basis AUG-CC-PVTZ/MP2FIT   loaded. Number of functions:     198

 Screening thresholds:   THRAO=  1.00D-10  THRMO=  1.00D-09  THRPROD=  1.00D-09
                         THRSW=  1.00D-05  THROV=  1.00D-12  THRAOF12=   1.00D-08

 CPU time for 3-index integral evaluation         0.52 sec
 CPU time for first  half transformation          0.01 sec (17636.1 MFLOP/sec)
 CPU time for sorting                             0.01 sec
 CPU time for assembly                            0.02 sec (26756.3 MFLOP/sec)
 CPU time for tranop_f12                          0.03 sec (21731.0 MFLOP/sec)
 CPU time for f12 integrals (total)               0.64 sec, Elapsed time:      0.66 sec
 CPU time for f12 matrices (total)                0.01 sec, Elapsed time:      0.02 sec

 Diagonal F12 approximation with fixed coefficients:  TSING= 0.500,  TTRIP= 0.250 (scaled by -1/beta)

 DF-MP2-F12 energy corrections:
 ==============================
 Approx.                                    Singlet             Triplet             Total
 DF-MP2-F12/3*C(DX,FIX)                -0.025351713814     -0.003036487038     -0.028388200852
 DF-MP2-F12/3*C(FIX)                   -0.023531893088     -0.002741253155     -0.026273146243
 DF-MP2-F12/3C(FIX)                    -0.023455161193     -0.002837546862     -0.026292708055

 DF-MP2-F12 correlation energies:
 ================================
 Approx.                                    Singlet             Triplet             Ecorr            Total Energy
 DF-MP2                                -0.173058785639     -0.098797576231     -0.271856361870    -76.338257999092
 DF-MP2-F12/3*C(DX,FIX)                -0.198410499454     -0.101834063269     -0.300244562723    -76.366646199944
 DF-MP2-F12/3*C(FIX)                   -0.196590678727     -0.101538829386     -0.298129508114    -76.364531145335
 DF-MP2-F12/3C(FIX)                    -0.196513946832     -0.101635123093     -0.298149069925    -76.364550707146

 SCS-DF-MP2 energies (F_SING= 1.20000  F_TRIP= 0.62222  F_PARALLEL= 0.33333):
 ============================================================================
 SCS-DF-MP2                            -0.269144590200    -76.335546227421
 SCS-DF-MP2-F12/3*C(DX,FIX)            -0.301456016490    -76.367857653711
 SCS-DF-MP2-F12/3*C(FIX)               -0.299088530535    -76.365490167757
 SCS-DF-MP2-F12/3C(FIX)                -0.299056368345    -76.365458005567
 Symmetry transformation completed.

 Number of N-1 electron functions:               4
 Number of N-2 electron functions:              10
 Number of singly external CSFs:               336
 Number of doubly external CSFs:             56616
 Total number of CSFs:                       56953

 Length of J-op  integral file:               9.11 MB
 Length of K-op  integral file:              14.70 MB
 Length of 3-ext integral record:             0.00 MB

 Memory could be reduced to 4.35 Mwords without degradation in triples

 Integral transformation finished. Total CPU:   0.16 sec, npass=  1  Memory used:   2.09 MW

 Reference energy:                    -76.06640164

 Adding F12 terms to K(Cij), methodcc=6,  factor= 1.0

 ITER.      SQ.NORM     CORR.ENERGY   TOTAL ENERGY   ENERGY CHANGE        DEN1      VAR(S)    VAR(P)  DIIS     TIME  TIME/IT
   1      1.06055052    -0.27235605   -76.33875769    -0.00045731     0.00513804  0.68D-03  0.91D-03  1  1     1.40     0.15
   2      1.06361206    -0.27208541   -76.33848704     0.00027064    -0.00437457  0.12D-04  0.94D-04  2  2     1.54     0.15
   3      1.06465791    -0.27220200   -76.33860363    -0.00011659    -0.00074271  0.78D-05  0.59D-05  3  3     1.68     0.15
   4      1.06512670    -0.27222195   -76.33862358    -0.00001995    -0.00031892  0.38D-06  0.46D-06  4  4     1.80     0.15
   5      1.06520652    -0.27222042   -76.33862206     0.00000153    -0.00001724  0.11D-06  0.28D-07  5  5     1.94     0.15
   6      1.06522804    -0.27221923   -76.33862087     0.00000119    -0.00000355  0.90D-08  0.28D-08  6  6     2.09     0.15
   7      1.06523362    -0.27221888   -76.33862052     0.00000035    -0.00000129  0.76D-09  0.21D-09  6  1     2.23     0.15
   8      1.06523490    -0.27221894   -76.33862057    -0.00000006    -0.00000001  0.56D-10  0.22D-10  6  2     2.38     0.15

 Norm of t1 vector:      0.03394575      S-energy:    -0.00000010      T1 diagnostic:  0.00848644
                                                                       D1 diagnostic:  0.01686294

 Adding energy correction from Wij-K(Fij), methodcc=6  factor= 1.0
 
  CCSD correlation energy              -0.272218937380
  MP2-F12 correction (uncoupled)       -0.025174203706
  C*T doubles correction               -0.000841816336
  f12b correction                       0.004266991473


 Total CPU time for triples:      0.83 sec


 RESULTS
 =======

  Reference energy                    -76.065367662186
  F12 singles correction               -0.001033975035

 F12 singles corrections added to reference energy

  New reference energy                -76.066401637221

  F12a singlet correction              -0.023284359633
  F12a triplet correction              -0.002731660409
  F12a total correction                -0.026016020043

 F12a corrections for ansatz F12/3C(FIX) added to CCSD energy
 
  CCSD-F12a singlet pair energy        -0.207618034306
  CCSD-F12a triplet pair energy        -0.090616828051
  CCSD-F12a correlation energy         -0.298234957423

  Triples (T) contribution             -0.008569874568
  Total correlation energy             -0.306804831991

  CCSD-F12a total energy              -76.364636594644
  CCSD[T]-F12a energy                 -76.373485103228
  CCSD-T-F12a energy                  -76.373085994250
 !CCSD(T)-F12a total energy           -76.373206469212

 F12b corrections for ansatz F12/3C(FIX) added to CCSD(T)-F12a energy

  CCSD-F12b singlet pair energy        -0.203663258938
  CCSD-F12b triplet pair energy        -0.090304611947
  CCSD-F12b correlation energy         -0.293967965950

  Triples (T) contribution             -0.008569874568
  Total correlation energy             -0.302537840518

  CCSD-F12b total energy              -76.360369603172
  CCSD[T]-F12b energy                 -76.369218111755
  CCSD-T-F12b energy                  -76.368819002777
 !CCSD(T)-F12b total energy           -76.368939477739

 Timing summary (sec):

 STEP                 CPU(USER)    SYS     CPU(TOT)    WALL
 Transformation          0.17      0.03      0.20      0.20
 CCSD iterations         1.15      0.14      1.29      1.29
 Triples                 0.83      0.03      0.86      0.86
 MP2-F12                 1.06      0.04      1.10      1.10
 F12b energy             0.10      0.02      0.12      0.12

 Program statistics:

 Available memory in ccsd:                49999786
 Min. memory needed in ccsd:                269472
 Max. memory used in ccsd:                  308684
 Max. memory used in cckext:                227914 ( 9 integral passes)



 **********************************************************************************************************************************
 DATASETS  * FILE   NREC   LENGTH (MB)   RECORD NAMES
              1      20       89.71       500      610      700      900      950      970     1000      129      960     1100   
                                          VAR    BASINP    GEOM    SYMINP    ZMAT    AOBASIS   BASIS     P2S    ABASIS      S 
                                         1400     1410     1200     1210     1080     1600     1650     1300     1700     1380   
                                           T        V       H0       H01     AOSYM     SMH    MOLCAS    ERIS     OPER     JKOP   

              2       6        3.11       700     1000      520     2100     7360     7350   
                                         GEOM     BASIS   MCVARS     RHF    F12ABS    EF12   

 PROGRAMS   *        TOTAL   CCSD(T)        HF       INT
 CPU TIMES  *         4.78      3.33      0.61      0.74
 REAL TIME  *         6.31 SEC
 DISK USED  *       216.12 MB      
 **********************************************************************************************************************************

 CCSD(T)-F12/cc-pVTZ-F12 energy=    -76.368939477739

     CCSD(T)-F12        HF-SCF  
    -76.36893948    -76.06536766
 **********************************************************************************************************************************
 Molpro calculation terminated
 Variable memory released
