
 Primary working directories    : /tmp/r2518/22897.maple
 Secondary working directories  : /tmp/r2518/22897.maple
 Wavefunction directory         : /ddn/home1/r2518/wfu/
 Main file repository           : /tmp/r2518/22897.maple/

 SHA1      : d5ffa45e93fdbca01ffc919aa182cfdae0147319
 NAME      : 2015.1.35
 ARCHNAME  : linux/x86_64
 FC        : /opt/intel/composer_xe_2015.1.133/bin/intel64/ifort
 BLASLIB   : -Wl,-_start-group /opt/intel/mkl/lib/intel64/libmkl_intel_ilp64.a /opt/intel/mkl/lib/intel64/libmkl_intel_thread.a /opt/intel/mkl/lib/intel64/libmkl_core.a -Wl,-_end-group
 id        : olemiss

 Nodes     nprocs
 cn004        1

 Using customized tuning parameters: mindgm=1; mindgv=20; mindgc=4; mindgr=1; noblas=0; minvec=7
 default implementation of scratch files=df  

 memory,50,m
 nocompress;
 geomtyp=xyz
 angstrom
 geometry={
 O,-0.05,0.0,-0.0657441568
 H,0.0,0.7574590974,0.5217905143
 H,0.05,-0.7574590974,0.5217905143
 }
 basis=cc-pVTZ-F12
 set,charge=0
 set,spin=0
 hf
 {CCSD(T)-F12}

 Variables initialized (889), CPU time= 0.01 sec
 Commands  initialized (702), CPU time= 0.01 sec, 572 directives.
 Default parameters read. Elapsed time= 0.45 sec

 Checking input...
 Passed
1


                                         ***  PROGRAM SYSTEM MOLPRO  ***
                                       Copyright, TTI GmbH Stuttgart, 2015
                                    Version 2015.1 linked Jul  9 2018 13:16:40


 **********************************************************************************************************************************
 LABEL *                                                                                 
  64 bit serial version                                                                  DATE: 28-Aug-19          TIME: 15:37:38  
 **********************************************************************************************************************************

 SHA1:             d5ffa45e93fdbca01ffc919aa182cfdae0147319
 **********************************************************************************************************************************

 Input parameters for SORTINT:

 COMPRESS =    0.000000
 C_FINAL  =    1.000000
 DEBUG    =   -1.000000
 C_SORT1  =    0.000000
 C_SEWARD =    0.000000
 THRESH   =    0.000000
 IO       =  molpro                                                          
 SPRI     =    0.000000
 SETTING GEOMTYP        =    XYZ
 ZUNIT=ANG
 

 Variable memory set to   50000000 words,  buffer space   230000 words

 SETTING BASIS          =    CC-PVTZ-F12
 SETTING CHARGE         =     0.00000000D+00                                  
 SETTING SPIN           =     0.00000000D+00                                  


 Recomputing integrals since basis changed


 Using spherical harmonics

 Library entry O      S cc-pVTZ-F12          selected for orbital group  1
 Library entry O      P cc-pVTZ-F12          selected for orbital group  1
 Library entry O      D cc-pVTZ-F12          selected for orbital group  1
 Library entry O      F cc-pVTZ-F12          selected for orbital group  1
 Library entry H      S cc-pVTZ-F12          selected for orbital group  2
 Library entry H      P cc-pVTZ-F12          selected for orbital group  2
 Library entry H      D cc-pVTZ-F12          selected for orbital group  2


 PROGRAM * SEWARD (Integral evaluation for generally contracted gaussian basis sets)     Author: Roland Lindh, 1990

 Geometry written to block  1 of record 700


 Point group  C1  



 ATOMIC COORDINATES

 NR  ATOM    CHARGE       X              Y              Z

   1  O       8.00   -0.094486306    0.000000000   -0.124238451
   2  H       1.00    0.000000000    1.431390245    0.986041166
   3  H       1.00    0.094486306   -1.431390245    0.986041166

 Bond lengths in Bohr (Angstrom)

 1-2  1.813980850  1-3  1.821348267
     ( 0.959917327)     ( 0.963815996)

 Bond angles

  2-1-3  103.98245559

 NUCLEAR CHARGE:                   10
 NUMBER OF PRIMITIVE AOS:         114
 NUMBER OF SYMMETRY AOS:          103
 NUMBER OF CONTRACTIONS:           89   (  89A   )
 NUMBER OF CORE ORBITALS:           1   (   1A   )
 NUMBER OF VALENCE ORBITALS:        6   (   6A   )


 NUCLEAR REPULSION ENERGY    9.15166105

 Eigenvalues of metric

         1 0.217E-03 0.456E-03 0.575E-03 0.692E-03 0.712E-03 0.798E-03 0.159E-02 0.203E-02


 Contracted 2-electron integrals neglected if value below      1.0D-11

        6975132. INTEGRALS WRITTEN OUT IN    1704 BLOCKS ON RECORD 1290 OF FILE 1


 NUMBER OF SORTED TWO-ELECTRON INTEGRALS:    8022015.     BUFFER LENGTH:  32768
 NUMBER OF SEGMENTS:   1  SEGMENT LENGTH:    8022015      RECORD LENGTH: 524288

 Memory used in sort:       8.58 MW

 SORT1 READ     6975132. AND WROTE     6975132. INTEGRALS IN     20 RECORDS. CPU TIME:     0.18 SEC, REAL TIME:    30.56 SEC
 SORT2 READ     6975132. AND WROTE     8022015. INTEGRALS IN      1 RECORDS. CPU TIME:     0.17 SEC, REAL TIME:     0.95 SEC

 FILE SIZES:   FILE 1:   131.9 MBYTE,  FILE 4:    83.9 MBYTE,   TOTAL:    215.8 MBYTE

 OPERATOR DM      FOR CENTER  0  COORDINATES:    0.000000    0.000000    0.000000


 **********************************************************************************************************************************
 DATASETS  * FILE   NREC   LENGTH (MB)   RECORD NAMES
              1      19       79.04       500      610      700      900      950      970     1000      129      960     1100   
                                          VAR    BASINP    GEOM    SYMINP    ZMAT    AOBASIS   BASIS     P2S    ABASIS      S 
                                         1400     1410     1200     1210     1080     1600     1650     1300     1700   
                                           T        V       H0       H01     AOSYM     SMH    MOLCAS    ERIS     OPER   

 PROGRAMS   *        TOTAL       INT
 CPU TIMES  *         0.94      0.83
 REAL TIME  *        48.32 SEC
 DISK USED  *       216.12 MB      
 **********************************************************************************************************************************


 PROGRAM * RHF-SCF (CLOSED SHELL)       Authors: W. Meyer, H.-J. Werner


 NUMBER OF ELECTRONS:       5+    5-    SPACE SYMMETRY=1    SPIN SYMMETRY: Singlet 
 CONVERGENCE THRESHOLDS:    1.00E-05 (Density)    1.00E-07 (Energy)
 MAX. NUMBER OF ITERATIONS:       60
 INTERPOLATION TYPE:            DIIS
 INTERPOLATION STEPS:              2 (START)      1 (STEP)
 LEVEL SHIFTS:                  0.00 (CLOSED)  0.00 (OPEN) 



 Orbital guess generated from atomic densities. Full valence occupancy:    7

 Molecular orbital dump at record        2100.2

 Initial occupancy:   5

 ITERATION    DDIFF          GRAD             ENERGY        2-EL.EN.            DIPOLE MOMENTS         DIIS   ORB.
    1      0.000D+00      0.000D+00       -76.02656284     77.612475    0.14501   -0.00125    1.13566    0    start
    2      0.000D+00      0.106D-01       -76.05354027     74.018590    0.08594    0.00050    0.67340    1    diag
    3      0.112D-01      0.663D-02       -76.06464859     75.604163    0.10059    0.00032    0.78806    2    diag
    4      0.383D-02      0.627D-03       -76.06483482     75.512760    0.10010    0.00055    0.78429    3    diag
    5      0.556D-03      0.171D-03       -76.06485377     75.526936    0.09992    0.00065    0.78293    4    diag
    6      0.195D-03      0.329D-04       -76.06485492     75.525995    0.09988    0.00068    0.78264    5    diag
    7      0.550D-04      0.649D-05       -76.06485497     75.526138    0.09987    0.00069    0.78253    6    diag
    8      0.117D-04      0.127D-05       -76.06485497     75.526129    0.09986    0.00069    0.78249    7    diag
    9      0.218D-05      0.159D-06       -76.06485497     75.526115    0.09986    0.00069    0.78248    0    orth

 Final occupancy:   5

 !RHF STATE 1.1 Energy                -76.064854973760
 Nuclear energy                         9.15166105
 One-electron energy                 -122.97957363
 Two-electron energy                   37.76305761
 Virial quotient                       -1.00114934
 !RHF STATE 1.1 Dipole moment           0.09986295     0.00068837     0.78248396
 Dipole moment /Debye                   0.25380969     0.00174954     1.98874558

 Orbital energies:

         1.1          2.1          3.1          4.1          5.1          6.1          7.1
    -20.565939    -1.350971    -0.714350    -0.585174    -0.510295     0.101787     0.120964

 HOMO      5.1    -0.510295 =     -13.8858eV
 LUMO      6.1     0.101787 =       2.7698eV
 LUMO-HOMO         0.612083 =      16.6556eV


 **********************************************************************************************************************************
 DATASETS  * FILE   NREC   LENGTH (MB)   RECORD NAMES
              1      19       79.04       500      610      700      900      950      970     1000      129      960     1100   
                                          VAR    BASINP    GEOM    SYMINP    ZMAT    AOBASIS   BASIS     P2S    ABASIS      S 
                                         1400     1410     1200     1210     1080     1600     1650     1300     1700   
                                           T        V       H0       H01     AOSYM     SMH    MOLCAS    ERIS     OPER   

              2       4        2.95       700     1000      520     2100   
                                         GEOM     BASIS   MCVARS     RHF  

 PROGRAMS   *        TOTAL        HF       INT
 CPU TIMES  *         1.61      0.67      0.83
 REAL TIME  *        49.30 SEC
 DISK USED  *       216.12 MB      
 **********************************************************************************************************************************


 PROGRAM * CCSD (Closed-shell coupled cluster)     Authors: C. Hampel, H.-J. Werner, 1991, M. Deegan, P.J. Knowles, 1992

                                  CCSD-F12 implementation by  H.-J. Werner, 2007

                   Density fitting integral evaluation by F.R. Manby, 2003,2007, G. Knizia, 2010

 Basis set AUG-CC-PVTZ/JKFIT generated.  Number of basis functions:   196 
 Basis set CC-PVTZ-F12/OPTRI generated.  Number of basis functions:   157 
 Basis set AUG-CC-PVTZ/MP2FIT generated. Number of basis functions:   198 

 Convergence thresholds:  THRVAR = 1.00D-08  THRDEN = 1.00D-06

 CCSD(T)     terms to be evaluated (factor= 1.000)


 Number of core orbitals:           1 (   1 )
 Number of closed-shell orbitals:   4 (   4 )
 Number of external orbitals:      84 (  84 )

 Molecular orbitals read from record     2100.2  Type=RHF/CANONICAL (state 1.1)

 MP2-F12 correlation treatment (H.-J. Werner, 2006)
 ==================================================

 Using MP2-F12 with ansatz 3C(FIX)

 Using projected zeroth-order Hamiltonian (+Z)

 FOCKRIB=T FOCKRIC=T FOCKRIP=T CABSP=T CABSA=T CABSK=T CABSF=T GBC=F EBC=F DMAT=T NOFIK=T NOPAO=1 SOLVE=-1  USEPAO=0
 EXCH_A= T EXCH_B= F EXCH_C= F EXCH_P= F
 
 Geminal basis:    OPTFULL  GEM_TYPE=SLATER  BETA=1.0  NGEM=6

 Optimizing Gaussian exponents for each gem_beta

 Geminal optimization for beta= 1.0000
 Weight function:   m=0, omega= 1.4646

 Augmented Hessian optimization of geminal fit. Trust ratio= 0.40000
 Convergence reached after   2 iterations. Final gradient= 8.12D-16, Step= 4.39D-06, Delta= 1.28D-09
 
 Alpha:                 0.19532     0.81920     2.85917     9.50073    35.69989   197.79328
 Coeff:                 0.27070     0.30552     0.18297     0.10986     0.06810     0.04224
 

 All pairs explicitly correlated. Number of r12-pairs:           10

 Excluding core orbitals from MO domains
 
 AO(A)-basis ORBITAL           loaded. Number of functions:      89
 RI(R)-basis CC-PVTZ-F12/OPTRI loaded. Number of functions:     157
 DF-basis AUG-CC-PVTZ/JKFIT    loaded. Number of functions:     196

 Screening thresholds:   THRAO=  1.00D-10  THRMO=  1.00D-09  THRPROD=  1.00D-09
                         THRSW=  1.00D-05  THROV=  1.00D-12  THRAOF12=   1.00D-08

 CPU time for Fock operators                      0.43 sec
 
 Construction of ABS:
 Smallest eigenvalue of S          7.93E-04  (threshold= 1.00E-08)
 Ratio eigmin/eigmax               1.32E-04  (threshold= 1.00E-09)
 Smallest eigenvalue of S kept     7.93E-04  (threshold= 7.93E-04, 0 functions deleted, 157 kept)
 
 Construction of CABS:
 Smallest eigenvalue of S          1.89E-06  (threshold= 1.00E-08)
 Ratio eigmin/eigmax               1.89E-06  (threshold= 1.00E-09)
 Smallest eigenvalue of S kept     1.89E-06  (threshold= 1.89E-06, 0 functions deleted, 157 kept)
 
 CPU time for CABS singles                        0.02 sec

 CABS-singles contribution of  -0.00100250 patched into reference energy.
 New reference energy         -76.06585747
 
 AO(A)-basis ORBITAL           loaded. Number of functions:      89
 RI(R)-basis CC-PVTZ-F12/OPTRI loaded. Number of functions:     157
 DF-basis AUG-CC-PVTZ/MP2FIT   loaded. Number of functions:     198

 Screening thresholds:   THRAO=  1.00D-10  THRMO=  1.00D-09  THRPROD=  1.00D-09
                         THRSW=  1.00D-05  THROV=  1.00D-12  THRAOF12=   1.00D-08

 CPU time for 3-index integral evaluation         0.57 sec
 CPU time for first  half transformation          0.05 sec ( 3527.2 MFLOP/sec)
 CPU time for assembly                            0.03 sec (17837.5 MFLOP/sec)
 CPU time for tranop_f12                          0.04 sec (16298.2 MFLOP/sec)
 CPU time for f12 integrals (total)               0.78 sec, Elapsed time:      0.85 sec
 CPU time for f12 matrices (total)                0.02 sec, Elapsed time:      0.02 sec

 Diagonal F12 approximation with fixed coefficients:  TSING= 0.500,  TTRIP= 0.250 (scaled by -1/beta)

 DF-MP2-F12 energy corrections:
 ==============================
 Approx.                                    Singlet             Triplet             Total
 DF-MP2-F12/3*C(DX,FIX)                -0.025242932405     -0.003018934854     -0.028261867259
 DF-MP2-F12/3*C(FIX)                   -0.023449925715     -0.002729408031     -0.026179333745
 DF-MP2-F12/3C(FIX)                    -0.023374100147     -0.002825604267     -0.026199704414

 DF-MP2-F12 correlation energies:
 ================================
 Approx.                                    Singlet             Triplet             Ecorr            Total Energy
 DF-MP2                                -0.174045948749     -0.099326948196     -0.273372896946    -76.339230368750
 DF-MP2-F12/3*C(DX,FIX)                -0.199288881154     -0.102345883051     -0.301634764205    -76.367492236009
 DF-MP2-F12/3*C(FIX)                   -0.197495874464     -0.102056356227     -0.299552230691    -76.365409702495
 DF-MP2-F12/3C(FIX)                    -0.197420048896     -0.102152552464     -0.299572601360    -76.365430073164

 SCS-DF-MP2 energies (F_SING= 1.20000  F_TRIP= 0.62222  F_PARALLEL= 0.33333):
 ============================================================================
 SCS-DF-MP2                            -0.270658572932    -76.336516044737
 SCS-DF-MP2-F12/3*C(DX,FIX)            -0.302828540172    -76.368686011976
 SCS-DF-MP2-F12/3*C(FIX)               -0.300496782120    -76.366354253924
 SCS-DF-MP2-F12/3C(FIX)                -0.300465646875    -76.366323118679
 Symmetry transformation completed.

 Number of N-1 electron functions:               4
 Number of N-2 electron functions:              10
 Number of singly external CSFs:               336
 Number of doubly external CSFs:             56616
 Total number of CSFs:                       56953

 Length of J-op  integral file:               9.11 MB
 Length of K-op  integral file:              14.70 MB
 Length of 3-ext integral record:             0.00 MB

 Memory could be reduced to 4.35 Mwords without degradation in triples

 Integral transformation finished. Total CPU:   0.21 sec, npass=  1  Memory used:   2.09 MW

 Reference energy:                    -76.06585747

 Adding F12 terms to K(Cij), methodcc=6,  factor= 1.0

 ITER.      SQ.NORM     CORR.ENERGY   TOTAL ENERGY   ENERGY CHANGE        DEN1      VAR(S)    VAR(P)  DIIS     TIME  TIME/IT
   1      1.06165760    -0.27367569   -76.33953316    -0.00026024     0.00554895  0.72D-03  0.96D-03  1  1     1.69     0.18
   2      1.06489044    -0.27340974   -76.33926721     0.00026595    -0.00453739  0.13D-04  0.10D-03  2  2     1.86     0.18
   3      1.06602160    -0.27353540   -76.33939288    -0.00012567    -0.00078274  0.85D-05  0.66D-05  3  3     2.03     0.19
   4      1.06653574    -0.27355657   -76.33941404    -0.00002116    -0.00034249  0.42D-06  0.52D-06  4  4     2.19     0.19
   5      1.06662306    -0.27355501   -76.33941248     0.00000155    -0.00001907  0.12D-06  0.31D-07  5  5     2.35     0.19
   6      1.06664662    -0.27355374   -76.33941122     0.00000127    -0.00000392  0.10D-07  0.31D-08  6  6     2.51     0.19
   7      1.06665267    -0.27355337   -76.33941085     0.00000037    -0.00000139  0.87D-09  0.24D-09  6  1     2.65     0.19
   8      1.06665407    -0.27355343   -76.33941090    -0.00000006    -0.00000001  0.66D-10  0.26D-10  6  2     2.83     0.19

 Norm of t1 vector:      0.03517233      S-energy:    -0.00000011      T1 diagnostic:  0.00879308
                                                                       D1 diagnostic:  0.01759872

 Adding energy correction from Wij-K(Fij), methodcc=6  factor= 1.0
 
  CCSD correlation energy              -0.273553431887
  MP2-F12 correction (uncoupled)       -0.025076463045
  C*T doubles correction               -0.000842534557
  f12b correction                       0.004274576353


 Total CPU time for triples:      1.52 sec


 RESULTS
 =======

  Reference energy                    -76.064854973760
  F12 singles correction               -0.001002498044

 F12 singles corrections added to reference energy

  New reference energy                -76.065857471804

  F12a singlet correction              -0.023199523434
  F12a triplet correction              -0.002719474169
  F12a total correction                -0.025918997602

 F12a corrections for ansatz F12/3C(FIX) added to CCSD energy
 
  CCSD-F12a singlet pair energy        -0.208706759895
  CCSD-F12a triplet pair energy        -0.090765562644
  CCSD-F12a correlation energy         -0.299472429489

  Triples (T) contribution             -0.008754990784
  Total correlation energy             -0.308227420273

  CCSD-F12a total energy              -76.365329901293
  CCSD[T]-F12a energy                 -76.374379003146
  CCSD-T-F12a energy                  -76.373956655415
 !CCSD(T)-F12a total energy           -76.374084892077

 F12b corrections for ansatz F12/3C(FIX) added to CCSD(T)-F12a energy

  CCSD-F12b singlet pair energy        -0.204743602501
  CCSD-F12b triplet pair energy        -0.090454143685
  CCSD-F12b correlation energy         -0.295197853136

  Triples (T) contribution             -0.008754990784
  Total correlation energy             -0.303952843920

  CCSD-F12b total energy              -76.361055324940
  CCSD[T]-F12b energy                 -76.370104426793
  CCSD-T-F12b energy                  -76.369682079062
 !CCSD(T)-F12b total energy           -76.369810315724

 Timing summary (sec):

 STEP                 CPU(USER)    SYS     CPU(TOT)    WALL
 Transformation          0.21      0.02      0.23      0.25
 CCSD iterations         1.33      0.23      1.56      1.57
 Triples                 1.52      0.03      1.55      1.56
 MP2-F12                 1.29      0.08      1.37      1.36
 F12b energy             0.13      0.02      0.15      0.14

 Program statistics:

 Available memory in ccsd:                49999786
 Min. memory needed in ccsd:                269472
 Max. memory used in ccsd:                  308684
 Max. memory used in cckext:                227914 ( 9 integral passes)



 **********************************************************************************************************************************
 DATASETS  * FILE   NREC   LENGTH (MB)   RECORD NAMES
              1      20       89.72       500      610      700      900      950      970     1000      129      960     1100   
                                          VAR    BASINP    GEOM    SYMINP    ZMAT    AOBASIS   BASIS     P2S    ABASIS      S 
                                         1400     1410     1200     1210     1080     1600     1650     1300     1700     1380   
                                           T        V       H0       H01     AOSYM     SMH    MOLCAS    ERIS     OPER     JKOP   

              2       6        3.11       700     1000      520     2100     7360     7350   
                                         GEOM     BASIS   MCVARS     RHF    F12ABS    EF12   

 PROGRAMS   *        TOTAL   CCSD(T)        HF       INT
 CPU TIMES  *         6.13      4.51      0.67      0.83
 REAL TIME  *        57.60 SEC
 DISK USED  *       216.12 MB      
 **********************************************************************************************************************************

 CCSD(T)-F12/cc-pVTZ-F12 energy=    -76.369810315724

     CCSD(T)-F12        HF-SCF  
    -76.36981032    -76.06485497
 **********************************************************************************************************************************
 Molpro calculation terminated
 Variable memory released
