
 Primary working directories    : /tmp/r2518/14411.maple
 Secondary working directories  : /tmp/r2518/14411.maple
 Wavefunction directory         : /ddn/home1/r2518/wfu/
 Main file repository           : /tmp/r2518/14411.maple/

 SHA1      : d5ffa45e93fdbca01ffc919aa182cfdae0147319
 NAME      : 2015.1.35
 ARCHNAME  : linux/x86_64
 FC        : /opt/intel/composer_xe_2015.1.133/bin/intel64/ifort
 BLASLIB   : -Wl,-_start-group /opt/intel/mkl/lib/intel64/libmkl_intel_ilp64.a /opt/intel/mkl/lib/intel64/libmkl_intel_thread.a /opt/intel/mkl/lib/intel64/libmkl_core.a -Wl,-_end-group
 id        : olemiss

 Nodes     nprocs
 cn060        1

 Using customized tuning parameters: mindgm=1; mindgv=20; mindgc=4; mindgr=1; noblas=0; minvec=7
 default implementation of scratch files=df  

 memory,50,m
 nocompress;
 geomtyp=xyz
 angstrom
 geometry={
 O,0.0,0.0,-0.015744156799999992
 H,0.0,0.7574590974,0.5217905143
 H,0.0,-0.7574590974,0.5217905143
 }
 basis=cc-pVTZ-F12
 set,charge=0
 set,spin=0
 hf
 {CCSD(T)-F12}

 Variables initialized (889), CPU time= 0.01 sec
 Commands  initialized (702), CPU time= 0.01 sec, 572 directives.
 Default parameters read. Elapsed time= 0.07 sec

 Checking input...
 Passed
1


                                         ***  PROGRAM SYSTEM MOLPRO  ***
                                       Copyright, TTI GmbH Stuttgart, 2015
                                    Version 2015.1 linked Jul  9 2018 13:16:40


 **********************************************************************************************************************************
 LABEL *                                                                                 
  64 bit serial version                                                                  DATE: 23-Aug-19          TIME: 17:43:58  
 **********************************************************************************************************************************

 SHA1:             d5ffa45e93fdbca01ffc919aa182cfdae0147319
 **********************************************************************************************************************************

 Input parameters for SORTINT:

 COMPRESS =    0.000000
 C_FINAL  =    1.000000
 DEBUG    =   -1.000000
 C_SORT1  =    0.000000
 C_SEWARD =    0.000000
 THRESH   =    0.000000
 IO       =  molpro                                                          
 SPRI     =    0.000000
 SETTING GEOMTYP        =    XYZ
 ZUNIT=ANG
 

 Variable memory set to   50000000 words,  buffer space   230000 words

 SETTING BASIS          =    CC-PVTZ-F12
 SETTING CHARGE         =     0.00000000D+00                                  
 SETTING SPIN           =     0.00000000D+00                                  


 Recomputing integrals since basis changed


 Using spherical harmonics

 Library entry O      S cc-pVTZ-F12          selected for orbital group  1
 Library entry O      P cc-pVTZ-F12          selected for orbital group  1
 Library entry O      D cc-pVTZ-F12          selected for orbital group  1
 Library entry O      F cc-pVTZ-F12          selected for orbital group  1
 Library entry H      S cc-pVTZ-F12          selected for orbital group  2
 Library entry H      P cc-pVTZ-F12          selected for orbital group  2
 Library entry H      D cc-pVTZ-F12          selected for orbital group  2


 PROGRAM * SEWARD (Integral evaluation for generally contracted gaussian basis sets)     Author: Roland Lindh, 1990

 Geometry written to block  1 of record 700


 Point group  C2v 



 ATOMIC COORDINATES

 NR  ATOM    CHARGE       X              Y              Z

   1  O       8.00    0.000000000    0.000000000   -0.029752144
   2  H       1.00    0.000000000    1.431390245    0.986041166
   3  H       1.00    0.000000000   -1.431390245    0.986041166

 Bond lengths in Bohr (Angstrom)

 1-2  1.755196309  1-3  1.755196309
     ( 0.928809887)     ( 0.928809887)

 Bond angles

  2-1-3  109.27678125

 NUCLEAR CHARGE:                   10
 NUMBER OF PRIMITIVE AOS:         114
 NUMBER OF SYMMETRY AOS:          103
 NUMBER OF CONTRACTIONS:           89   (  35A1  +  18B1  +  26B2  +  10A2  )
 NUMBER OF CORE ORBITALS:           1   (   1A1  +   0B1  +   0B2  +   0A2  )
 NUMBER OF VALENCE ORBITALS:        6   (   3A1  +   1B1  +   2B2  +   0A2  )


 NUCLEAR REPULSION ENERGY    9.46510020

 Eigenvalues of metric

         1 0.192E-03 0.561E-03 0.701E-03 0.153E-02 0.206E-02 0.343E-02 0.710E-02 0.138E-01
         2 0.687E-03 0.874E-02 0.407E-01 0.833E-01 0.113E+00 0.213E+00 0.244E+00 0.358E+00
         3 0.404E-03 0.772E-03 0.192E-02 0.399E-02 0.624E-02 0.126E-01 0.160E-01 0.443E-01
         4 0.705E-02 0.894E-01 0.184E+00 0.291E+00 0.423E+00 0.575E+00 0.856E+00 0.128E+01


 Contracted 2-electron integrals neglected if value below      1.0D-11

        1872782. INTEGRALS WRITTEN OUT IN     458 BLOCKS ON RECORD 1290 OF FILE 1


 NUMBER OF SORTED TWO-ELECTRON INTEGRALS:    2124910.     BUFFER LENGTH:  32768
 NUMBER OF SEGMENTS:   1  SEGMENT LENGTH:    2124910      RECORD LENGTH: 524288

 Memory used in sort:       2.68 MW

 SORT1 READ     1872782. AND WROTE     1933116. INTEGRALS IN      6 RECORDS. CPU TIME:     0.09 SEC, REAL TIME:     0.10 SEC
 SORT2 READ     1933116. AND WROTE     2124910. INTEGRALS IN      1 RECORDS. CPU TIME:     0.09 SEC, REAL TIME:     0.10 SEC

 FILE SIZES:   FILE 1:    50.1 MBYTE,  FILE 4:    25.2 MBYTE,   TOTAL:     75.3 MBYTE

 OPERATOR DM      FOR CENTER  0  COORDINATES:    0.000000    0.000000    0.000000


 **********************************************************************************************************************************
 DATASETS  * FILE   NREC   LENGTH (MB)   RECORD NAMES
              1      19       35.96       500      610      700      900      950      970     1000      129      960     1100   
                                          VAR    BASINP    GEOM    SYMINP    ZMAT    AOBASIS   BASIS     P2S    ABASIS      S 
                                         1400     1410     1200     1210     1080     1600     1650     1300     1700   
                                           T        V       H0       H01     AOSYM     SMH    MOLCAS    ERIS     OPER   

 PROGRAMS   *        TOTAL       INT
 CPU TIMES  *         0.56      0.46
 REAL TIME  *         1.09 SEC
 DISK USED  *        75.63 MB      
 **********************************************************************************************************************************


 PROGRAM * RHF-SCF (CLOSED SHELL)       Authors: W. Meyer, H.-J. Werner


 NUMBER OF ELECTRONS:       5+    5-
 CONVERGENCE THRESHOLDS:    1.00E-05 (Density)    1.00E-07 (Energy)
 MAX. NUMBER OF ITERATIONS:       60
 INTERPOLATION TYPE:            DIIS
 INTERPOLATION STEPS:              2 (START)      1 (STEP)
 LEVEL SHIFTS:                  0.00 (CLOSED)  0.00 (OPEN) 



 Orbital guess generated from atomic densities. Full valence occupancy:    4   1   2   0

 Molecular orbital dump at record        2100.2

 Initial occupancy:   3   1   1   0

 ITERATION    DDIFF          GRAD             ENERGY        2-EL.EN.            DIPOLE MOMENTS         DIIS   ORB.
    1      0.000D+00      0.000D+00       -76.02852474     78.105798    0.00000    0.00000    1.04750    0    start
    2      0.000D+00      0.185D-01       -76.05515657     74.588744    0.00000    0.00000    0.64908    1    diag
    3      0.206D-01      0.111D-01       -76.06526313     76.102836    0.00000    0.00000    0.74586    2    diag
    4      0.678D-02      0.105D-02       -76.06543425     76.015613    0.00000    0.00000    0.74436    3    diag
    5      0.102D-02      0.269D-03       -76.06544867     76.027556    0.00000    0.00000    0.74364    4    diag
    6      0.328D-03      0.479D-04       -76.06544941     76.026868    0.00000    0.00000    0.74358    5    diag
    7      0.933D-04      0.838D-05       -76.06544944     76.026992    0.00000    0.00000    0.74351    6    diag
    8      0.192D-04      0.190D-05       -76.06544944     76.026990    0.00000    0.00000    0.74347    7    diag
    9      0.341D-05      0.262D-06       -76.06544944     76.026980    0.00000    0.00000    0.74347    0    orth

 Final occupancy:   3   1   1   0

 !RHF STATE 1.1 Energy                -76.065449441916
 Nuclear energy                         9.46510020
 One-electron energy                 -123.54403987
 Two-electron energy                   38.01349023
 Virial quotient                       -0.99949441
 !RHF STATE 1.1 Dipole moment           0.00000000     0.00000000     0.74346875
 Dipole moment /Debye                   0.00000000     0.00000000     1.88958531

 Orbital energies:

         1.1          2.1          3.1          4.1          5.1
    -20.557740    -1.364692    -0.581067     0.102447     0.146721

         1.2          2.2          3.2
     -0.511645     0.145037     0.520112

         1.3          2.3          3.3
     -0.743386     0.118184     0.231895

         1.4          2.4
      0.478608     1.297151

 HOMO      1.2    -0.511645 =     -13.9226eV
 LUMO      4.1     0.102447 =       2.7877eV
 LUMO-HOMO         0.614092 =      16.7103eV


 **********************************************************************************************************************************
 DATASETS  * FILE   NREC   LENGTH (MB)   RECORD NAMES
              1      19       35.96       500      610      700      900      950      970     1000      129      960     1100   
                                          VAR    BASINP    GEOM    SYMINP    ZMAT    AOBASIS   BASIS     P2S    ABASIS      S 
                                         1400     1410     1200     1210     1080     1600     1650     1300     1700   
                                           T        V       H0       H01     AOSYM     SMH    MOLCAS    ERIS     OPER   

              2       4        2.84       700     1000      520     2100   
                                         GEOM     BASIS   MCVARS     RHF  

 PROGRAMS   *        TOTAL        HF       INT
 CPU TIMES  *         0.66      0.10      0.46
 REAL TIME  *         1.62 SEC
 DISK USED  *        75.63 MB      
 **********************************************************************************************************************************


 PROGRAM * CCSD (Closed-shell coupled cluster)     Authors: C. Hampel, H.-J. Werner, 1991, M. Deegan, P.J. Knowles, 1992

                                  CCSD-F12 implementation by  H.-J. Werner, 2007

                   Density fitting integral evaluation by F.R. Manby, 2003,2007, G. Knizia, 2010

 Basis set AUG-CC-PVTZ/JKFIT generated.  Number of basis functions:   196 
 Basis set CC-PVTZ-F12/OPTRI generated.  Number of basis functions:   157 
 Basis set AUG-CC-PVTZ/MP2FIT generated. Number of basis functions:   198 

 Convergence thresholds:  THRVAR = 1.00D-08  THRDEN = 1.00D-06

 CCSD(T)     terms to be evaluated (factor= 1.000)


 Number of core orbitals:           1 (   1   0   0   0 )
 Number of closed-shell orbitals:   4 (   2   1   1   0 )
 Number of external orbitals:      84 (  32  17  25  10 )

 Molecular orbitals read from record     2100.2  Type=RHF/CANONICAL (state 1.1)

 MP2-F12 correlation treatment (H.-J. Werner, 2006)
 ==================================================

 Using MP2-F12 with ansatz 3C(FIX)

 Using projected zeroth-order Hamiltonian (+Z)

 FOCKRIB=T FOCKRIC=T FOCKRIP=T CABSP=T CABSA=T CABSK=T CABSF=T GBC=F EBC=F DMAT=T NOFIK=T NOPAO=1 SOLVE=-1  USEPAO=0
 EXCH_A= T EXCH_B= F EXCH_C= F EXCH_P= F
 
 Geminal basis:    OPTFULL  GEM_TYPE=SLATER  BETA=1.0  NGEM=6

 Optimizing Gaussian exponents for each gem_beta

 Geminal optimization for beta= 1.0000
 Weight function:   m=0, omega= 1.4646

 Augmented Hessian optimization of geminal fit. Trust ratio= 0.40000
 Convergence reached after   2 iterations. Final gradient= 8.41D-16, Step= 4.29D-06, Delta= 1.28D-09
 
 Alpha:                 0.19532     0.81920     2.85917     9.50073    35.69989   197.79328
 Coeff:                 0.27070     0.30552     0.18297     0.10986     0.06810     0.04224
 

 Symmetry turned off. Reference energy:        -76.065449441916

 All pairs explicitly correlated. Number of r12-pairs:           10

 Excluding core orbitals from MO domains
 
 AO(A)-basis ORBITAL           loaded. Number of functions:      89
 RI(R)-basis CC-PVTZ-F12/OPTRI loaded. Number of functions:     157
 DF-basis AUG-CC-PVTZ/JKFIT    loaded. Number of functions:     196

 Screening thresholds:   THRAO=  1.00D-10  THRMO=  1.00D-09  THRPROD=  1.00D-09
                         THRSW=  1.00D-05  THROV=  1.00D-12  THRAOF12=   1.00D-08

 CPU time for Fock operators                      1.08 sec
 
 Construction of ABS:
 Smallest eigenvalue of S          6.97E-04  (threshold= 1.00E-08)
 Ratio eigmin/eigmax               1.15E-04  (threshold= 1.00E-09)
 Smallest eigenvalue of S kept     6.97E-04  (threshold= 6.97E-04, 0 functions deleted, 157 kept)
 
 Construction of CABS:
 Smallest eigenvalue of S          1.59E-06  (threshold= 1.00E-08)
 Ratio eigmin/eigmax               1.59E-06  (threshold= 1.00E-09)
 Smallest eigenvalue of S kept     1.59E-06  (threshold= 1.59E-06, 0 functions deleted, 157 kept)
 
 CPU time for CABS singles                        0.01 sec

 CABS-singles contribution of  -0.00106388 patched into reference energy.
 New reference energy         -76.06651332
 
 AO(A)-basis ORBITAL           loaded. Number of functions:      89
 RI(R)-basis CC-PVTZ-F12/OPTRI loaded. Number of functions:     157
 DF-basis AUG-CC-PVTZ/MP2FIT   loaded. Number of functions:     198

 Screening thresholds:   THRAO=  1.00D-10  THRMO=  1.00D-09  THRPROD=  1.00D-09
                         THRSW=  1.00D-05  THROV=  1.00D-12  THRAOF12=   1.00D-08

 CPU time for 3-index integral evaluation         0.55 sec
 CPU time for first  half transformation          0.07 sec ( 2519.4 MFLOP/sec)
 CPU time for fitting                             0.01 sec ( 8185.8 MFLOP/sec)
 CPU time for tilde quantities                    0.02 sec ( 5410.2 MFLOP/sec)
 CPU time for assembly                            0.01 sec (53512.5 MFLOP/sec)
 CPU time for tranop_f12                          0.04 sec (16298.2 MFLOP/sec)
 CPU time for f12 integrals (total)               1.56 sec, Elapsed time:      1.58 sec
 CPU time for f12 matrices (total)                0.00 sec, Elapsed time:      0.01 sec

 Diagonal F12 approximation with fixed coefficients:  TSING= 0.500,  TTRIP= 0.250 (scaled by -1/beta)

 DF-MP2-F12 energy corrections:
 ==============================
 Approx.                                    Singlet             Triplet             Total
 DF-MP2-F12/3*C(DX,FIX)                -0.025458995579     -0.003054139793     -0.028513135372
 DF-MP2-F12/3*C(FIX)                   -0.023613631669     -0.002753427253     -0.026367058923
 DF-MP2-F12/3C(FIX)                    -0.023535716830     -0.002849771400     -0.026385488230

 DF-MP2-F12 correlation energies:
 ================================
 Approx.                                    Singlet             Triplet             Ecorr            Total Energy
 DF-MP2                                -0.172135450357     -0.098325576053     -0.270461026410    -76.336974344870
 DF-MP2-F12/3*C(DX,FIX)                -0.197594445936     -0.101379715846     -0.298974161782    -76.365487480242
 DF-MP2-F12/3*C(FIX)                   -0.195749082027     -0.101079003306     -0.296828085332    -76.363341403792
 DF-MP2-F12/3C(FIX)                    -0.195671167187     -0.101175347453     -0.296846514640    -76.363359833100

 SCS-DF-MP2 energies (F_SING= 1.20000  F_TRIP= 0.62222  F_PARALLEL= 0.33333):
 ============================================================================
 SCS-DF-MP2                            -0.267742898861    -76.334256217321
 SCS-DF-MP2-F12/3*C(DX,FIX)            -0.300194047205    -76.366707365665
 SCS-DF-MP2-F12/3*C(FIX)               -0.297792500489    -76.364305818949
 SCS-DF-MP2-F12/3C(FIX)                -0.297758950151    -76.364272268611

 Symmetry restored.
 Symmetry transformation completed.

 Number of N-1 electron functions:               4
 Number of N-2 electron functions:              10
 Number of singly external CSFs:               106
 Number of doubly external CSFs:             14828
 Total number of CSFs:                       14935

 Length of J-op  integral file:               8.86 MB
 Length of K-op  integral file:              13.00 MB
 Length of 3-ext integral record:             0.00 MB

 Memory could be reduced to 1.33 Mwords without degradation in triples

 Integral transformation finished. Total CPU:   0.03 sec, npass=  1  Memory used:   0.24 MW

 Reference energy:                    -76.06651332

 Adding F12 terms to K(Cij), methodcc=6,  factor= 1.0

 ITER.      SQ.NORM     CORR.ENERGY   TOTAL ENERGY   ENERGY CHANGE        DEN1      VAR(S)    VAR(P)  DIIS     TIME  TIME/IT
   1      1.05950910    -0.27112893   -76.33764225    -0.00062569     0.00477142  0.64D-03  0.86D-03  1  1     2.91     0.03
   2      1.06241059    -0.27085215   -76.33736547     0.00027678    -0.00422235  0.11D-04  0.86D-04  2  2     2.94     0.03
   3      1.06337766    -0.27096042   -76.33747374    -0.00010827    -0.00070509  0.72D-05  0.53D-05  3  3     2.97     0.03
   4      1.06380525    -0.27097930   -76.33749261    -0.00001888    -0.00029717  0.35D-06  0.42D-06  4  4     3.00     0.03
   5      1.06387820    -0.27097781   -76.33749113     0.00000149    -0.00001558  0.97D-07  0.24D-07  5  5     3.04     0.03
   6      1.06389790    -0.27097669   -76.33749001     0.00000112    -0.00000324  0.81D-08  0.24D-08  6  6     3.06     0.03
   7      1.06390305    -0.27097636   -76.33748968     0.00000032    -0.00000120  0.66D-09  0.18D-09  6  1     3.08     0.03
   8      1.06390422    -0.27097642   -76.33748973    -0.00000005    -0.00000000  0.48D-10  0.18D-10  6  2     3.11     0.04

 Norm of t1 vector:      0.03276823      S-energy:    -0.00000008      T1 diagnostic:  0.00819206
                                                                       D1 diagnostic:  0.01616340

 Adding energy correction from Wij-K(Fij), methodcc=6  factor= 1.0
 
  CCSD correlation energy              -0.270976415683
  MP2-F12 correction (uncoupled)       -0.025271918526
  C*T doubles correction               -0.000840864218
  f12b correction                       0.004260189815


 Total CPU time for triples:      0.12 sec


 RESULTS
 =======

  Reference energy                    -76.065449441916
  F12 singles correction               -0.001063876544

 F12 singles corrections added to reference energy

  New reference energy                -76.066513318460

  F12a singlet correction              -0.023368667261
  F12a triplet correction              -0.002744115483
  F12a total correction                -0.026112782744

 F12a corrections for ansatz F12/3C(FIX) added to CCSD energy
 
  CCSD-F12a singlet pair energy        -0.206595808038
  CCSD-F12a triplet pair energy        -0.090493307243
  CCSD-F12a correlation energy         -0.297089198427

  Triples (T) contribution             -0.008398603954
  Total correlation energy             -0.305487802381

  CCSD-F12a total energy              -76.363602516887
  CCSD[T]-F12a energy                 -76.372265451875
  CCSD-T-F12a energy                  -76.371887838163
 !CCSD(T)-F12a total energy           -76.372001120841

 F12b corrections for ansatz F12/3C(FIX) added to CCSD(T)-F12a energy

  CCSD-F12b singlet pair energy        -0.202648691752
  CCSD-F12b triplet pair energy        -0.090180233714
  CCSD-F12b correlation energy         -0.292829008612

  Triples (T) contribution             -0.008398603954
  Total correlation energy             -0.301227612566

  CCSD-F12b total energy              -76.359342327072
  CCSD[T]-F12b energy                 -76.368005262060
  CCSD-T-F12b energy                  -76.367627648348
 !CCSD(T)-F12b total energy           -76.367740931026

 Timing summary (sec):

 STEP                 CPU(USER)    SYS     CPU(TOT)    WALL
 Transformation          0.03      0.00      0.03      0.04
 CCSD iterations         0.28      0.07      0.35      0.37
 Triples                 0.12      0.00      0.12      0.12
 MP2-F12                 2.81      0.07      2.88      2.89
 F12b energy             0.02      0.01      0.03      0.03

 Program statistics:

 Available memory in ccsd:                49999786
 Min. memory needed in ccsd:                 74516
 Max. memory used in ccsd:                   84748
 Max. memory used in cckext:                120394 ( 9 integral passes)



 **********************************************************************************************************************************
 DATASETS  * FILE   NREC   LENGTH (MB)   RECORD NAMES
              1      20       38.72       500      610      700      900      950      970     1000      129      960     1100   
                                          VAR    BASINP    GEOM    SYMINP    ZMAT    AOBASIS   BASIS     P2S    ABASIS      S 
                                         1400     1410     1200     1210     1080     1600     1650     1300     1700     1380   
                                           T        V       H0       H01     AOSYM     SMH    MOLCAS    ERIS     OPER     JKOP   

              2       6        2.89       700     1000      520     2100     7360     7350   
                                         GEOM     BASIS   MCVARS     RHF    F12ABS    EF12   

 PROGRAMS   *        TOTAL   CCSD(T)        HF       INT
 CPU TIMES  *         3.95      3.29      0.10      0.46
 REAL TIME  *         5.11 SEC
 DISK USED  *        78.36 MB      
 **********************************************************************************************************************************

 CCSD(T)-F12/cc-pVTZ-F12 energy=    -76.367740931026

     CCSD(T)-F12        HF-SCF  
    -76.36774093    -76.06544944
 **********************************************************************************************************************************
 Molpro calculation terminated
 Variable memory released
