
 Primary working directories    : /tmp/r2518/22930.maple
 Secondary working directories  : /tmp/r2518/22930.maple
 Wavefunction directory         : /ddn/home1/r2518/wfu/
 Main file repository           : /tmp/r2518/22930.maple/

 SHA1      : d5ffa45e93fdbca01ffc919aa182cfdae0147319
 NAME      : 2015.1.35
 ARCHNAME  : linux/x86_64
 FC        : /opt/intel/composer_xe_2015.1.133/bin/intel64/ifort
 BLASLIB   : -Wl,-_start-group /opt/intel/mkl/lib/intel64/libmkl_intel_ilp64.a /opt/intel/mkl/lib/intel64/libmkl_intel_thread.a /opt/intel/mkl/lib/intel64/libmkl_core.a -Wl,-_end-group
 id        : olemiss

 Nodes     nprocs
 cn059        1

 Using customized tuning parameters: mindgm=1; mindgv=20; mindgc=4; mindgr=1; noblas=0; minvec=7
 default implementation of scratch files=df  

 memory,50,m
 nocompress;
 geomtyp=xyz
 angstrom
 geometry={
 O,0.0,0.0,-0.015744156799999992
 H,0.0,0.7574590974,0.4717905143
 H,0.0,-0.7574590974,0.5217905143
 }
 basis=cc-pVTZ-F12
 set,charge=0
 set,spin=0
 hf
 {CCSD(T)-F12}

 Variables initialized (889), CPU time= 0.01 sec
 Commands  initialized (702), CPU time= 0.00 sec, 572 directives.
 Default parameters read. Elapsed time= 0.05 sec

 Checking input...
 Passed
1


                                         ***  PROGRAM SYSTEM MOLPRO  ***
                                       Copyright, TTI GmbH Stuttgart, 2015
                                    Version 2015.1 linked Jul  9 2018 13:16:40


 **********************************************************************************************************************************
 LABEL *                                                                                 
  64 bit serial version                                                                  DATE: 28-Aug-19          TIME: 15:37:40  
 **********************************************************************************************************************************

 SHA1:             d5ffa45e93fdbca01ffc919aa182cfdae0147319
 **********************************************************************************************************************************

 Input parameters for SORTINT:

 COMPRESS =    0.000000
 C_FINAL  =    1.000000
 DEBUG    =   -1.000000
 C_SORT1  =    0.000000
 C_SEWARD =    0.000000
 THRESH   =    0.000000
 IO       =  molpro                                                          
 SPRI     =    0.000000
 SETTING GEOMTYP        =    XYZ
 ZUNIT=ANG
 

 Variable memory set to   50000000 words,  buffer space   230000 words

 SETTING BASIS          =    CC-PVTZ-F12
 SETTING CHARGE         =     0.00000000D+00                                  
 SETTING SPIN           =     0.00000000D+00                                  


 Recomputing integrals since basis changed


 Using spherical harmonics

 Library entry O      S cc-pVTZ-F12          selected for orbital group  1
 Library entry O      P cc-pVTZ-F12          selected for orbital group  1
 Library entry O      D cc-pVTZ-F12          selected for orbital group  1
 Library entry O      F cc-pVTZ-F12          selected for orbital group  1
 Library entry H      S cc-pVTZ-F12          selected for orbital group  2
 Library entry H      P cc-pVTZ-F12          selected for orbital group  2
 Library entry H      D cc-pVTZ-F12          selected for orbital group  2


 PROGRAM * SEWARD (Integral evaluation for generally contracted gaussian basis sets)     Author: Roland Lindh, 1990

 Geometry written to block  1 of record 700


 Point group  Cs  



 ATOMIC COORDINATES

 NR  ATOM    CHARGE       X              Y              Z

   1  O       8.00    0.000000000    0.000000000   -0.029752144
   2  H       1.00    0.000000000    1.431390245    0.891554860
   3  H       1.00    0.000000000   -1.431390245    0.986041166

 Bond lengths in Bohr (Angstrom)

 1-2  1.702258685  1-3  1.755196309
     ( 0.900796503)     ( 0.928809887)

 Bond angles

  2-1-3  111.87123975

 NUCLEAR CHARGE:                   10
 NUMBER OF PRIMITIVE AOS:         114
 NUMBER OF SYMMETRY AOS:          103
 NUMBER OF CONTRACTIONS:           89   (  61A'  +  28A"  )
 NUMBER OF CORE ORBITALS:           1   (   1A'  +   0A"  )
 NUMBER OF VALENCE ORBITALS:        6   (   5A'  +   1A"  )


 NUCLEAR REPULSION ENERGY    9.60665361

 Eigenvalues of metric

         1 0.182E-03 0.380E-03 0.555E-03 0.697E-03 0.762E-03 0.150E-02 0.187E-02 0.202E-02
         2 0.685E-03 0.640E-02 0.837E-02 0.391E-01 0.830E-01 0.895E-01 0.107E+00 0.180E+00


 Contracted 2-electron integrals neglected if value below      1.0D-11

        3665598. INTEGRALS WRITTEN OUT IN     896 BLOCKS ON RECORD 1290 OF FILE 1


 NUMBER OF SORTED TWO-ELECTRON INTEGRALS:    4174745.     BUFFER LENGTH:  32768
 NUMBER OF SEGMENTS:   1  SEGMENT LENGTH:    4174745      RECORD LENGTH: 524288

 Memory used in sort:       4.73 MW

 SORT1 READ     3665598. AND WROTE     3728714. INTEGRALS IN     11 RECORDS. CPU TIME:     0.12 SEC, REAL TIME:     0.16 SEC
 SORT2 READ     3728714. AND WROTE     4174745. INTEGRALS IN      1 RECORDS. CPU TIME:     0.09 SEC, REAL TIME:     0.15 SEC

 FILE SIZES:   FILE 1:    78.9 MBYTE,  FILE 4:    46.2 MBYTE,   TOTAL:    125.0 MBYTE

 OPERATOR DM      FOR CENTER  0  COORDINATES:    0.000000    0.000000    0.000000


 **********************************************************************************************************************************
 DATASETS  * FILE   NREC   LENGTH (MB)   RECORD NAMES
              1      19       51.11       500      610      700      900      950      970     1000      129      960     1100   
                                          VAR    BASINP    GEOM    SYMINP    ZMAT    AOBASIS   BASIS     P2S    ABASIS      S 
                                         1400     1410     1200     1210     1080     1600     1650     1300     1700   
                                           T        V       H0       H01     AOSYM     SMH    MOLCAS    ERIS     OPER   

 PROGRAMS   *        TOTAL       INT
 CPU TIMES  *         0.72      0.62
 REAL TIME  *         1.62 SEC
 DISK USED  *       125.35 MB      
 **********************************************************************************************************************************


 PROGRAM * RHF-SCF (CLOSED SHELL)       Authors: W. Meyer, H.-J. Werner


 NUMBER OF ELECTRONS:       5+    5-
 CONVERGENCE THRESHOLDS:    1.00E-05 (Density)    1.00E-07 (Energy)
 MAX. NUMBER OF ITERATIONS:       60
 INTERPOLATION TYPE:            DIIS
 INTERPOLATION STEPS:              2 (START)      1 (STEP)
 LEVEL SHIFTS:                  0.00 (CLOSED)  0.00 (OPEN) 



 Orbital guess generated from atomic densities. Full valence occupancy:    6   1

 Molecular orbital dump at record        2100.2

 Initial occupancy:   4   1

 ITERATION    DDIFF          GRAD             ENERGY        2-EL.EN.            DIPOLE MOMENTS         DIIS   ORB.
    1      0.000D+00      0.000D+00       -76.02682368     78.336014    0.00000   -0.00936    1.00424    0    start
    2      0.000D+00      0.136D-01       -76.05337016     74.834392    0.00000    0.00305    0.63352    1    diag
    3      0.149D-01      0.809D-02       -76.06315909     76.324758    0.00000    0.00185    0.72299    2    diag
    4      0.487D-02      0.760D-03       -76.06332639     76.239514    0.00000    0.00330    0.72236    3    diag
    5      0.738D-03      0.191D-03       -76.06333960     76.250519    0.00000    0.00381    0.72186    4    diag
    6      0.229D-03      0.335D-04       -76.06334025     76.249908    0.00000    0.00396    0.72188    5    diag
    7      0.669D-04      0.558D-05       -76.06334028     76.250022    0.00000    0.00400    0.72181    6    diag
    8      0.139D-04      0.131D-05       -76.06334028     76.250023    0.00000    0.00401    0.72177    7    diag
    9      0.245D-05      0.191D-06       -76.06334028     76.250014    0.00000    0.00401    0.72177    0    orth

 Final occupancy:   4   1

 !RHF STATE 1.1 Energy                -76.063340279682
 Nuclear energy                         9.60665361
 One-electron energy                 -123.79500078
 Two-electron energy                   38.12500689
 Virial quotient                       -0.99868686
 !RHF STATE 1.1 Dipole moment           0.00000000     0.00400642     0.72177045
 Dipole moment /Debye                   0.00000000     0.01018265     1.83443734

 Orbital energies:

         1.1          2.1          3.1          4.1          5.1          6.1
    -20.554029    -1.370793    -0.756843    -0.578551     0.102732     0.116858

         1.2          2.2          3.2
     -0.512277     0.144920     0.477146

 HOMO      1.2    -0.512277 =     -13.9398eV
 LUMO      5.1     0.102732 =       2.7955eV
 LUMO-HOMO         0.615009 =      16.7353eV


 **********************************************************************************************************************************
 DATASETS  * FILE   NREC   LENGTH (MB)   RECORD NAMES
              1      19       51.11       500      610      700      900      950      970     1000      129      960     1100   
                                          VAR    BASINP    GEOM    SYMINP    ZMAT    AOBASIS   BASIS     P2S    ABASIS      S 
                                         1400     1410     1200     1210     1080     1600     1650     1300     1700   
                                           T        V       H0       H01     AOSYM     SMH    MOLCAS    ERIS     OPER   

              2       4        2.88       700     1000      520     2100   
                                         GEOM     BASIS   MCVARS     RHF  

 PROGRAMS   *        TOTAL        HF       INT
 CPU TIMES  *         0.97      0.25      0.62
 REAL TIME  *         2.00 SEC
 DISK USED  *       125.35 MB      
 **********************************************************************************************************************************


 PROGRAM * CCSD (Closed-shell coupled cluster)     Authors: C. Hampel, H.-J. Werner, 1991, M. Deegan, P.J. Knowles, 1992

                                  CCSD-F12 implementation by  H.-J. Werner, 2007

                   Density fitting integral evaluation by F.R. Manby, 2003,2007, G. Knizia, 2010

 Basis set AUG-CC-PVTZ/JKFIT generated.  Number of basis functions:   196 
 Basis set CC-PVTZ-F12/OPTRI generated.  Number of basis functions:   157 
 Basis set AUG-CC-PVTZ/MP2FIT generated. Number of basis functions:   198 

 Convergence thresholds:  THRVAR = 1.00D-08  THRDEN = 1.00D-06

 CCSD(T)     terms to be evaluated (factor= 1.000)


 Number of core orbitals:           1 (   1   0 )
 Number of closed-shell orbitals:   4 (   3   1 )
 Number of external orbitals:      84 (  57  27 )

 Molecular orbitals read from record     2100.2  Type=RHF/CANONICAL (state 1.1)

 MP2-F12 correlation treatment (H.-J. Werner, 2006)
 ==================================================

 Using MP2-F12 with ansatz 3C(FIX)

 Using projected zeroth-order Hamiltonian (+Z)

 FOCKRIB=T FOCKRIC=T FOCKRIP=T CABSP=T CABSA=T CABSK=T CABSF=T GBC=F EBC=F DMAT=T NOFIK=T NOPAO=1 SOLVE=-1  USEPAO=0
 EXCH_A= T EXCH_B= F EXCH_C= F EXCH_P= F
 
 Geminal basis:    OPTFULL  GEM_TYPE=SLATER  BETA=1.0  NGEM=6

 Optimizing Gaussian exponents for each gem_beta

 Geminal optimization for beta= 1.0000
 Weight function:   m=0, omega= 1.4646

 Augmented Hessian optimization of geminal fit. Trust ratio= 0.40000
 Convergence reached after   2 iterations. Final gradient= 8.41D-16, Step= 4.29D-06, Delta= 1.28D-09
 
 Alpha:                 0.19532     0.81920     2.85917     9.50073    35.69989   197.79328
 Coeff:                 0.27070     0.30552     0.18297     0.10986     0.06810     0.04224
 

 Symmetry turned off. Reference energy:        -76.063340279682

 All pairs explicitly correlated. Number of r12-pairs:           10

 Excluding core orbitals from MO domains
 
 AO(A)-basis ORBITAL           loaded. Number of functions:      89
 RI(R)-basis CC-PVTZ-F12/OPTRI loaded. Number of functions:     157
 DF-basis AUG-CC-PVTZ/JKFIT    loaded. Number of functions:     196

 Screening thresholds:   THRAO=  1.00D-10  THRMO=  1.00D-09  THRPROD=  1.00D-09
                         THRSW=  1.00D-05  THROV=  1.00D-12  THRAOF12=   1.00D-08

 CPU time for Fock operators                      1.06 sec
 
 Construction of ABS:
 Smallest eigenvalue of S          6.52E-04  (threshold= 1.00E-08)
 Ratio eigmin/eigmax               1.08E-04  (threshold= 1.00E-09)
 Smallest eigenvalue of S kept     6.52E-04  (threshold= 6.52E-04, 0 functions deleted, 157 kept)
 
 Construction of CABS:
 Smallest eigenvalue of S          1.49E-06  (threshold= 1.00E-08)
 Ratio eigmin/eigmax               1.49E-06  (threshold= 1.00E-09)
 Smallest eigenvalue of S kept     1.49E-06  (threshold= 1.49E-06, 0 functions deleted, 157 kept)
 
 CPU time for CABS singles                        0.01 sec

 CABS-singles contribution of  -0.00109228 patched into reference energy.
 New reference energy         -76.06443256
 
 AO(A)-basis ORBITAL           loaded. Number of functions:      89
 RI(R)-basis CC-PVTZ-F12/OPTRI loaded. Number of functions:     157
 DF-basis AUG-CC-PVTZ/MP2FIT   loaded. Number of functions:     198

 Screening thresholds:   THRAO=  1.00D-10  THRMO=  1.00D-09  THRPROD=  1.00D-09
                         THRSW=  1.00D-05  THROV=  1.00D-12  THRAOF12=   1.00D-08

 CPU time for 3-index integral evaluation         0.57 sec
 CPU time for first  half transformation          0.05 sec ( 3527.2 MFLOP/sec)
 CPU time for second half transformation          0.01 sec (  493.4 MFLOP/sec)
 CPU time for sorting                             0.01 sec
 CPU time for fitting                             0.01 sec ( 8185.8 MFLOP/sec)
 CPU time for assembly                            0.01 sec (53512.5 MFLOP/sec)
 CPU time for tranop_f12                          0.04 sec (16298.2 MFLOP/sec)
 CPU time for f12 integrals (total)               1.56 sec, Elapsed time:      1.61 sec
 CPU time for f12 matrices (total)                0.01 sec, Elapsed time:      0.01 sec

 Diagonal F12 approximation with fixed coefficients:  TSING= 0.500,  TTRIP= 0.250 (scaled by -1/beta)

 DF-MP2-F12 energy corrections:
 ==============================
 Approx.                                    Singlet             Triplet             Total
 DF-MP2-F12/3*C(DX,FIX)                -0.025562036756     -0.003071245743     -0.028633282499
 DF-MP2-F12/3*C(FIX)                   -0.023693171774     -0.002765475926     -0.026458647701
 DF-MP2-F12/3C(FIX)                    -0.023613474262     -0.002861817903     -0.026475292164

 DF-MP2-F12 correlation energies:
 ================================
 Approx.                                    Singlet             Triplet             Ecorr            Total Energy
 DF-MP2                                -0.171362876974     -0.097936039692     -0.269298916667    -76.333731474392
 DF-MP2-F12/3*C(DX,FIX)                -0.196924913730     -0.101007285435     -0.297932199166    -76.362364756892
 DF-MP2-F12/3*C(FIX)                   -0.195056048749     -0.100701515619     -0.295757564367    -76.360190122093
 DF-MP2-F12/3C(FIX)                    -0.194976351236     -0.100797857595     -0.295774208831    -76.360206766557

 SCS-DF-MP2 energies (F_SING= 1.20000  F_TRIP= 0.62222  F_PARALLEL= 0.33333):
 ============================================================================
 SCS-DF-MP2                            -0.266573432622    -76.331005990348
 SCS-DF-MP2-F12/3*C(DX,FIX)            -0.299158874081    -76.363591431806
 SCS-DF-MP2-F12/3*C(FIX)               -0.296725979328    -76.361158537054
 SCS-DF-MP2-F12/3C(FIX)                -0.296690288431    -76.361122846157

 Symmetry restored.
 Symmetry transformation completed.

 Number of N-1 electron functions:               4
 Number of N-2 electron functions:              10
 Number of singly external CSFs:               198
 Number of doubly external CSFs:             29292
 Total number of CSFs:                       29491

 Length of J-op  integral file:               8.97 MB
 Length of K-op  integral file:              13.62 MB
 Length of 3-ext integral record:             0.00 MB

 Memory could be reduced to 2.37 Mwords without degradation in triples

 Integral transformation finished. Total CPU:   0.07 sec, npass=  1  Memory used:   0.62 MW

 Reference energy:                    -76.06443256

 Adding F12 terms to K(Cij), methodcc=6,  factor= 1.0

 ITER.      SQ.NORM     CORR.ENERGY   TOTAL ENERGY   ENERGY CHANGE        DEN1      VAR(S)    VAR(P)  DIIS     TIME  TIME/IT
   1      1.05865119    -0.27010575   -76.33453831    -0.00076468     0.00447125  0.61D-03  0.82D-03  1  1     2.98     0.07
   2      1.06142726    -0.26982487   -76.33425743     0.00028088    -0.00409776  0.97D-05  0.81D-04  2  2     3.03     0.08
   3      1.06233501    -0.26992682   -76.33435938    -0.00010196    -0.00067571  0.67D-05  0.49D-05  3  3     3.10     0.08
   4      1.06273204    -0.26994487   -76.33437743    -0.00001805    -0.00028040  0.33D-06  0.38D-06  4  4     3.15     0.08
   5      1.06279983    -0.26994341   -76.33437597     0.00000146    -0.00001432  0.89D-07  0.22D-07  5  5     3.22     0.08
   6      1.06281812    -0.26994235   -76.33437491     0.00000106    -0.00000300  0.73D-08  0.22D-08  6  6     3.29     0.08
   7      1.06282293    -0.26994204   -76.33437460     0.00000031    -0.00000112  0.59D-09  0.16D-09  6  1     3.35     0.08
   8      1.06282401    -0.26994209   -76.33437465    -0.00000005    -0.00000000  0.42D-10  0.16D-10  6  2     3.40     0.08

 Norm of t1 vector:      0.03181442      S-energy:    -0.00000008      T1 diagnostic:  0.00795360
                                                                       D1 diagnostic:  0.01557054

 Adding energy correction from Wij-K(Fij), methodcc=6  factor= 1.0
 
  CCSD correlation energy              -0.269942091844
  MP2-F12 correction (uncoupled)       -0.025366627624
  C*T doubles correction               -0.000839708126
  f12b correction                       0.004254897678


 Total CPU time for triples:      0.31 sec


 RESULTS
 =======

  Reference energy                    -76.063340279682
  F12 singles correction               -0.001092278044

 F12 singles corrections added to reference energy

  New reference energy                -76.064432557726

  F12a singlet correction              -0.023450040214
  F12a triplet correction              -0.002756295537
  F12a total correction                -0.026206335751

 F12a corrections for ansatz F12/3C(FIX) added to CCSD energy
 
  CCSD-F12a singlet pair energy        -0.205755484482
  CCSD-F12a triplet pair energy        -0.090392867121
  CCSD-F12a correlation energy         -0.296148427595

  Triples (T) contribution             -0.008256896281
  Total correlation energy             -0.304405323876

  CCSD-F12a total energy              -76.360580985321
  CCSD[T]-F12a energy                 -76.369090692548
  CCSD-T-F12a energy                  -76.368730336593
 !CCSD(T)-F12a total energy           -76.368837881602

 F12b corrections for ansatz F12/3C(FIX) added to CCSD(T)-F12a energy

  CCSD-F12b singlet pair energy        -0.201814490859
  CCSD-F12b triplet pair energy        -0.090078963067
  CCSD-F12b correlation energy         -0.291893529917

  Triples (T) contribution             -0.008256896281
  Total correlation energy             -0.300150426198

  CCSD-F12b total energy              -76.356326087643
  CCSD[T]-F12b energy                 -76.364835794870
  CCSD-T-F12b energy                  -76.364475438915
 !CCSD(T)-F12b total energy           -76.364582983924

 Timing summary (sec):

 STEP                 CPU(USER)    SYS     CPU(TOT)    WALL
 Transformation          0.07      0.02      0.09      0.09
 CCSD iterations         0.53      0.14      0.67      0.69
 Triples                 0.31      0.01      0.32      0.32
 MP2-F12                 2.80      0.07      2.87      2.87
 F12b energy             0.06      0.00      0.06      0.06

 Program statistics:

 Available memory in ccsd:                49999786
 Min. memory needed in ccsd:                145972
 Max. memory used in ccsd:                  166319
 Max. memory used in cckext:                248663 ( 9 integral passes)



 **********************************************************************************************************************************
 DATASETS  * FILE   NREC   LENGTH (MB)   RECORD NAMES
              1      20       56.61       500      610      700      900      950      970     1000      129      960     1100   
                                          VAR    BASINP    GEOM    SYMINP    ZMAT    AOBASIS   BASIS     P2S    ABASIS      S 
                                         1400     1410     1200     1210     1080     1600     1650     1300     1700     1380   
                                           T        V       H0       H01     AOSYM     SMH    MOLCAS    ERIS     OPER     JKOP   

              2       6        2.97       700     1000      520     2100     7360     7350   
                                         GEOM     BASIS   MCVARS     RHF    F12ABS    EF12   

 PROGRAMS   *        TOTAL   CCSD(T)        HF       INT
 CPU TIMES  *         4.78      3.81      0.25      0.62
 REAL TIME  *         6.06 SEC
 DISK USED  *       125.35 MB      
 **********************************************************************************************************************************

 CCSD(T)-F12/cc-pVTZ-F12 energy=    -76.364582983924

     CCSD(T)-F12        HF-SCF  
    -76.36458298    -76.06334028
 **********************************************************************************************************************************
 Molpro calculation terminated
 Variable memory released
