
 Primary working directories    : /tmp/r2518/22921.maple
 Secondary working directories  : /tmp/r2518/22921.maple
 Wavefunction directory         : /ddn/home1/r2518/wfu/
 Main file repository           : /tmp/r2518/22921.maple/

 SHA1      : d5ffa45e93fdbca01ffc919aa182cfdae0147319
 NAME      : 2015.1.35
 ARCHNAME  : linux/x86_64
 FC        : /opt/intel/composer_xe_2015.1.133/bin/intel64/ifort
 BLASLIB   : -Wl,-_start-group /opt/intel/mkl/lib/intel64/libmkl_intel_ilp64.a /opt/intel/mkl/lib/intel64/libmkl_intel_thread.a /opt/intel/mkl/lib/intel64/libmkl_core.a -Wl,-_end-group
 id        : olemiss

 Nodes     nprocs
 cn060        1

 Using customized tuning parameters: mindgm=1; mindgv=20; mindgc=4; mindgr=1; noblas=0; minvec=7
 default implementation of scratch files=df  

 memory,50,m
 nocompress;
 geomtyp=xyz
 angstrom
 geometry={
 O,0.0,0.05,-0.0657441568
 H,0.0,0.7574590974,0.5217905143
 H,0.0,-0.7574590974,0.4717905143
 }
 basis=cc-pVTZ-F12
 set,charge=0
 set,spin=0
 hf
 {CCSD(T)-F12}

 Variables initialized (889), CPU time= 0.01 sec
 Commands  initialized (702), CPU time= 0.01 sec, 572 directives.
 Default parameters read. Elapsed time= 0.19 sec

 Checking input...
 Passed
1


                                         ***  PROGRAM SYSTEM MOLPRO  ***
                                       Copyright, TTI GmbH Stuttgart, 2015
                                    Version 2015.1 linked Jul  9 2018 13:16:40


 **********************************************************************************************************************************
 LABEL *                                                                                 
  64 bit serial version                                                                  DATE: 28-Aug-19          TIME: 15:37:38  
 **********************************************************************************************************************************

 SHA1:             d5ffa45e93fdbca01ffc919aa182cfdae0147319
 **********************************************************************************************************************************

 Input parameters for SORTINT:

 COMPRESS =    0.000000
 C_FINAL  =    1.000000
 DEBUG    =   -1.000000
 C_SORT1  =    0.000000
 C_SEWARD =    0.000000
 THRESH   =    0.000000
 IO       =  molpro                                                          
 SPRI     =    0.000000
 SETTING GEOMTYP        =    XYZ
 ZUNIT=ANG
 

 Variable memory set to   50000000 words,  buffer space   230000 words

 SETTING BASIS          =    CC-PVTZ-F12
 SETTING CHARGE         =     0.00000000D+00                                  
 SETTING SPIN           =     0.00000000D+00                                  


 Recomputing integrals since basis changed


 Using spherical harmonics

 Library entry O      S cc-pVTZ-F12          selected for orbital group  1
 Library entry O      P cc-pVTZ-F12          selected for orbital group  1
 Library entry O      D cc-pVTZ-F12          selected for orbital group  1
 Library entry O      F cc-pVTZ-F12          selected for orbital group  1
 Library entry H      S cc-pVTZ-F12          selected for orbital group  2
 Library entry H      P cc-pVTZ-F12          selected for orbital group  2
 Library entry H      D cc-pVTZ-F12          selected for orbital group  2


 PROGRAM * SEWARD (Integral evaluation for generally contracted gaussian basis sets)     Author: Roland Lindh, 1990

 Geometry written to block  1 of record 700


 Point group  Cs  



 ATOMIC COORDINATES

 NR  ATOM    CHARGE       X              Y              Z

   1  O       8.00    0.000000000    0.094486306   -0.124238451
   2  H       1.00    0.000000000    1.431390245    0.986041166
   3  H       1.00    0.000000000   -1.431390245    0.891554860

 Bond lengths in Bohr (Angstrom)

 1-2  1.737824205  1-3  1.833067183
     ( 0.919616966)     ( 0.970017380)

 Bond angles

  2-1-3  106.63869689

 NUCLEAR CHARGE:                   10
 NUMBER OF PRIMITIVE AOS:         114
 NUMBER OF SYMMETRY AOS:          103
 NUMBER OF CONTRACTIONS:           89   (  61A'  +  28A"  )
 NUMBER OF CORE ORBITALS:           1   (   1A'  +   0A"  )
 NUMBER OF VALENCE ORBITALS:        6   (   5A'  +   1A"  )


 NUCLEAR REPULSION ENERGY    9.31684816

 Eigenvalues of metric

         1 0.202E-03 0.433E-03 0.568E-03 0.706E-03 0.784E-03 0.156E-02 0.197E-02 0.211E-02
         2 0.689E-03 0.727E-02 0.100E-01 0.424E-01 0.834E-01 0.893E-01 0.120E+00 0.186E+00


 Contracted 2-electron integrals neglected if value below      1.0D-11

        3676687. INTEGRALS WRITTEN OUT IN     898 BLOCKS ON RECORD 1290 OF FILE 1


 NUMBER OF SORTED TWO-ELECTRON INTEGRALS:    4174745.     BUFFER LENGTH:  32768
 NUMBER OF SEGMENTS:   1  SEGMENT LENGTH:    4174745      RECORD LENGTH: 524288

 Memory used in sort:       4.73 MW

 SORT1 READ     3676687. AND WROTE     3739803. INTEGRALS IN     11 RECORDS. CPU TIME:     0.12 SEC, REAL TIME:     0.16 SEC
 SORT2 READ     3739803. AND WROTE     4174745. INTEGRALS IN      1 RECORDS. CPU TIME:     0.12 SEC, REAL TIME:     0.15 SEC

 FILE SIZES:   FILE 1:    79.0 MBYTE,  FILE 4:    46.2 MBYTE,   TOTAL:    125.2 MBYTE

 OPERATOR DM      FOR CENTER  0  COORDINATES:    0.000000    0.000000    0.000000


 **********************************************************************************************************************************
 DATASETS  * FILE   NREC   LENGTH (MB)   RECORD NAMES
              1      19       51.17       500      610      700      900      950      970     1000      129      960     1100   
                                          VAR    BASINP    GEOM    SYMINP    ZMAT    AOBASIS   BASIS     P2S    ABASIS      S 
                                         1400     1410     1200     1210     1080     1600     1650     1300     1700   
                                           T        V       H0       H01     AOSYM     SMH    MOLCAS    ERIS     OPER   

 PROGRAMS   *        TOTAL       INT
 CPU TIMES  *         0.74      0.64
 REAL TIME  *         1.41 SEC
 DISK USED  *       125.48 MB      
 **********************************************************************************************************************************


 PROGRAM * RHF-SCF (CLOSED SHELL)       Authors: W. Meyer, H.-J. Werner


 NUMBER OF ELECTRONS:       5+    5-
 CONVERGENCE THRESHOLDS:    1.00E-05 (Density)    1.00E-07 (Energy)
 MAX. NUMBER OF ITERATIONS:       60
 INTERPOLATION TYPE:            DIIS
 INTERPOLATION STEPS:              2 (START)      1 (STEP)
 LEVEL SHIFTS:                  0.00 (CLOSED)  0.00 (OPEN) 



 Orbital guess generated from atomic densities. Full valence occupancy:    6   1

 Molecular orbital dump at record        2100.2

 Initial occupancy:   4   1

 ITERATION    DDIFF          GRAD             ENERGY        2-EL.EN.            DIPOLE MOMENTS         DIIS   ORB.
    1      0.000D+00      0.000D+00       -76.02672384     77.878073    0.00000   -0.11341    1.09159    0    start
    2      0.000D+00      0.136D-01       -76.05363419     74.314115    0.00000   -0.05272    0.66263    1    diag
    3      0.148D-01      0.837D-02       -76.06426635     75.865584    0.00000   -0.06435    0.76792    2    diag
    4      0.499D-02      0.790D-03       -76.06444744     75.776592    0.00000   -0.06127    0.76538    3    diag
    5      0.738D-03      0.210D-03       -76.06446446     75.789609    0.00000   -0.06007    0.76435    4    diag
    6      0.248D-03      0.396D-04       -76.06446544     75.788779    0.00000   -0.05970    0.76417    5    diag
    7      0.706D-04      0.766D-05       -76.06446549     75.788913    0.00000   -0.05960    0.76408    6    diag
    8      0.149D-04      0.160D-05       -76.06446549     75.788906    0.00000   -0.05958    0.76404    7    diag
    9      0.273D-05      0.209D-06       -76.06446549     75.788894    0.00000   -0.05958    0.76403    0    orth

 Final occupancy:   4   1

 !RHF STATE 1.1 Energy                -76.064465490303
 Nuclear energy                         9.31684816
 One-electron energy                 -123.27576071
 Two-electron energy                   37.89444706
 Virial quotient                       -1.00024824
 !RHF STATE 1.1 Dipole moment           0.00000000    -0.05958219     0.76403367
 Dipole moment /Debye                   0.00000000    -0.15143291     1.94185268

 Orbital energies:

         1.1          2.1          3.1          4.1          5.1          6.1
    -20.561620    -1.358608    -0.729161    -0.583035     0.101951     0.119590

         1.2          2.2          3.2
     -0.511009     0.145162     0.479650

 HOMO      1.2    -0.511009 =     -13.9053eV
 LUMO      5.1     0.101951 =       2.7742eV
 LUMO-HOMO         0.612960 =      16.6795eV


 **********************************************************************************************************************************
 DATASETS  * FILE   NREC   LENGTH (MB)   RECORD NAMES
              1      19       51.17       500      610      700      900      950      970     1000      129      960     1100   
                                          VAR    BASINP    GEOM    SYMINP    ZMAT    AOBASIS   BASIS     P2S    ABASIS      S 
                                         1400     1410     1200     1210     1080     1600     1650     1300     1700   
                                           T        V       H0       H01     AOSYM     SMH    MOLCAS    ERIS     OPER   

              2       4        2.88       700     1000      520     2100   
                                         GEOM     BASIS   MCVARS     RHF  

 PROGRAMS   *        TOTAL        HF       INT
 CPU TIMES  *         1.03      0.29      0.64
 REAL TIME  *         2.02 SEC
 DISK USED  *       125.48 MB      
 **********************************************************************************************************************************


 PROGRAM * CCSD (Closed-shell coupled cluster)     Authors: C. Hampel, H.-J. Werner, 1991, M. Deegan, P.J. Knowles, 1992

                                  CCSD-F12 implementation by  H.-J. Werner, 2007

                   Density fitting integral evaluation by F.R. Manby, 2003,2007, G. Knizia, 2010

 Basis set AUG-CC-PVTZ/JKFIT generated.  Number of basis functions:   196 
 Basis set CC-PVTZ-F12/OPTRI generated.  Number of basis functions:   157 
 Basis set AUG-CC-PVTZ/MP2FIT generated. Number of basis functions:   198 

 Convergence thresholds:  THRVAR = 1.00D-08  THRDEN = 1.00D-06

 CCSD(T)     terms to be evaluated (factor= 1.000)


 Number of core orbitals:           1 (   1   0 )
 Number of closed-shell orbitals:   4 (   3   1 )
 Number of external orbitals:      84 (  57  27 )

 Molecular orbitals read from record     2100.2  Type=RHF/CANONICAL (state 1.1)

 MP2-F12 correlation treatment (H.-J. Werner, 2006)
 ==================================================

 Using MP2-F12 with ansatz 3C(FIX)

 Using projected zeroth-order Hamiltonian (+Z)

 FOCKRIB=T FOCKRIC=T FOCKRIP=T CABSP=T CABSA=T CABSK=T CABSF=T GBC=F EBC=F DMAT=T NOFIK=T NOPAO=1 SOLVE=-1  USEPAO=0
 EXCH_A= T EXCH_B= F EXCH_C= F EXCH_P= F
 
 Geminal basis:    OPTFULL  GEM_TYPE=SLATER  BETA=1.0  NGEM=6

 Optimizing Gaussian exponents for each gem_beta

 Geminal optimization for beta= 1.0000
 Weight function:   m=0, omega= 1.4646

 Augmented Hessian optimization of geminal fit. Trust ratio= 0.40000
 Convergence reached after   2 iterations. Final gradient= 8.41D-16, Step= 4.29D-06, Delta= 1.28D-09
 
 Alpha:                 0.19532     0.81920     2.85917     9.50073    35.69989   197.79328
 Coeff:                 0.27070     0.30552     0.18297     0.10986     0.06810     0.04224
 

 Symmetry turned off. Reference energy:        -76.064465490303

 All pairs explicitly correlated. Number of r12-pairs:           10

 Excluding core orbitals from MO domains
 
 AO(A)-basis ORBITAL           loaded. Number of functions:      89
 RI(R)-basis CC-PVTZ-F12/OPTRI loaded. Number of functions:     157
 DF-basis AUG-CC-PVTZ/JKFIT    loaded. Number of functions:     196

 Screening thresholds:   THRAO=  1.00D-10  THRMO=  1.00D-09  THRPROD=  1.00D-09
                         THRSW=  1.00D-05  THROV=  1.00D-12  THRAOF12=   1.00D-08

 CPU time for Fock operators                      1.07 sec
 
 Construction of ABS:
 Smallest eigenvalue of S          7.09E-04  (threshold= 1.00E-08)
 Ratio eigmin/eigmax               1.18E-04  (threshold= 1.00E-09)
 Smallest eigenvalue of S kept     7.09E-04  (threshold= 7.09E-04, 0 functions deleted, 157 kept)
 
 Construction of CABS:
 Smallest eigenvalue of S          1.69E-06  (threshold= 1.00E-08)
 Ratio eigmin/eigmax               1.69E-06  (threshold= 1.00E-09)
 Smallest eigenvalue of S kept     1.69E-06  (threshold= 1.69E-06, 0 functions deleted, 157 kept)
 
 CPU time for CABS singles                        0.01 sec

 CABS-singles contribution of  -0.00103594 patched into reference energy.
 New reference energy         -76.06550143
 
 AO(A)-basis ORBITAL           loaded. Number of functions:      89
 RI(R)-basis CC-PVTZ-F12/OPTRI loaded. Number of functions:     157
 DF-basis AUG-CC-PVTZ/MP2FIT   loaded. Number of functions:     198

 Screening thresholds:   THRAO=  1.00D-10  THRMO=  1.00D-09  THRPROD=  1.00D-09
                         THRSW=  1.00D-05  THROV=  1.00D-12  THRAOF12=   1.00D-08

 CPU time for 3-index integral evaluation         0.59 sec
 CPU time for first  half transformation          0.01 sec (17636.1 MFLOP/sec)
 CPU time for sorting                             0.01 sec
 CPU time for tilde quantities                    0.01 sec (10820.3 MFLOP/sec)
 CPU time for assembly                            0.02 sec (26756.3 MFLOP/sec)
 CPU time for tranop_f12                          0.03 sec (21731.0 MFLOP/sec)
 CPU time for f12 integrals (total)               1.55 sec, Elapsed time:      1.61 sec
 CPU time for f12 matrices (total)                0.01 sec, Elapsed time:      0.01 sec

 Diagonal F12 approximation with fixed coefficients:  TSING= 0.500,  TTRIP= 0.250 (scaled by -1/beta)

 DF-MP2-F12 energy corrections:
 ==============================
 Approx.                                    Singlet             Triplet             Total
 DF-MP2-F12/3*C(DX,FIX)                -0.025357140891     -0.003037364170     -0.028394505061
 DF-MP2-F12/3*C(FIX)                   -0.023535944742     -0.002741877699     -0.026277822441
 DF-MP2-F12/3C(FIX)                    -0.023458785794     -0.002838134778     -0.026296920572

 DF-MP2-F12 correlation energies:
 ================================
 Approx.                                    Singlet             Triplet             Ecorr            Total Energy
 DF-MP2                                -0.173050305449     -0.098783359911     -0.271833665360    -76.337335093071
 DF-MP2-F12/3*C(DX,FIX)                -0.198407446340     -0.101820724081     -0.300228170421    -76.365729598131
 DF-MP2-F12/3*C(FIX)                   -0.196586250191     -0.101525237610     -0.298111487801    -76.363612915511
 DF-MP2-F12/3C(FIX)                    -0.196509091243     -0.101621494689     -0.298130585932    -76.363632013643

 SCS-DF-MP2 energies (F_SING= 1.20000  F_TRIP= 0.62222  F_PARALLEL= 0.33333):
 ============================================================================
 SCS-DF-MP2                            -0.269125568261    -76.334626995972
 SCS-DF-MP2-F12/3*C(DX,FIX)            -0.301444052814    -76.366945480524
 SCS-DF-MP2-F12/3*C(FIX)               -0.299074759186    -76.364576186897
 SCS-DF-MP2-F12/3C(FIX)                -0.299042061743    -76.364543489453

 Symmetry restored.
 Symmetry transformation completed.

 Number of N-1 electron functions:               4
 Number of N-2 electron functions:              10
 Number of singly external CSFs:               198
 Number of doubly external CSFs:             29292
 Total number of CSFs:                       29491

 Length of J-op  integral file:               8.97 MB
 Length of K-op  integral file:              13.62 MB
 Length of 3-ext integral record:             0.00 MB

 Memory could be reduced to 2.37 Mwords without degradation in triples

 Integral transformation finished. Total CPU:   0.08 sec, npass=  1  Memory used:   0.62 MW

 Reference energy:                    -76.06550143

 Adding F12 terms to K(Cij), methodcc=6,  factor= 1.0

 ITER.      SQ.NORM     CORR.ENERGY   TOTAL ENERGY   ENERGY CHANGE        DEN1      VAR(S)    VAR(P)  DIIS     TIME  TIME/IT
   1      1.06055041    -0.27234246   -76.33784389    -0.00046638     0.00512950  0.68D-03  0.91D-03  1  1     2.98     0.07
   2      1.06361557    -0.27207300   -76.33757443     0.00026946    -0.00437495  0.12D-04  0.94D-04  2  2     3.04     0.07
   3      1.06466430    -0.27218982   -76.33769124    -0.00011682    -0.00074366  0.78D-05  0.59D-05  3  3     3.11     0.08
   4      1.06513463    -0.27220977   -76.33771120    -0.00001996    -0.00031948  0.38D-06  0.46D-06  4  4     3.18     0.08
   5      1.06521467    -0.27220823   -76.33770966     0.00000154    -0.00001729  0.11D-06  0.28D-07  5  5     3.24     0.08
   6      1.06523620    -0.27220704   -76.33770847     0.00000119    -0.00000355  0.91D-08  0.28D-08  6  6     3.32     0.08
   7      1.06524178    -0.27220670   -76.33770812     0.00000035    -0.00000129  0.76D-09  0.21D-09  6  1     3.39     0.08
   8      1.06524306    -0.27220675   -76.33770818    -0.00000006    -0.00000001  0.57D-10  0.22D-10  6  2     3.46     0.08

 Norm of t1 vector:      0.03396913      S-energy:    -0.00000010      T1 diagnostic:  0.00849228
                                                                       D1 diagnostic:  0.01686010

 Adding energy correction from Wij-K(Fij), methodcc=6  factor= 1.0
 
  CCSD correlation energy              -0.272206751182
  MP2-F12 correction (uncoupled)       -0.025178918220
  C*T doubles correction               -0.000841670369
  f12b correction                       0.004266878797


 Total CPU time for triples:      0.51 sec


 RESULTS
 =======

  Reference energy                    -76.064465490303
  F12 singles correction               -0.001035937407

 F12 singles corrections added to reference energy

  New reference energy                -76.065501427710

  F12a singlet correction              -0.023288341832
  F12a triplet correction              -0.002732246758
  F12a total correction                -0.026020588590

 F12a corrections for ansatz F12/3C(FIX) added to CCSD energy
 
  CCSD-F12a singlet pair energy        -0.207618830737
  CCSD-F12a triplet pair energy        -0.090608412493
  CCSD-F12a correlation energy         -0.298227339772

  Triples (T) contribution             -0.008568110966
  Total correlation energy             -0.306795450738

  CCSD-F12a total energy              -76.363728767483
  CCSD[T]-F12a energy                 -76.372575592587
  CCSD-T-F12a energy                  -76.372176312757
 !CCSD(T)-F12a total energy           -76.372296878449

 F12b corrections for ansatz F12/3C(FIX) added to CCSD(T)-F12a energy

  CCSD-F12b singlet pair energy        -0.203664174243
  CCSD-F12b triplet pair energy        -0.090296190190
  CCSD-F12b correlation energy         -0.293960460975

  Triples (T) contribution             -0.008568110966
  Total correlation energy             -0.302528571941

  CCSD-F12b total energy              -76.359461888686
  CCSD[T]-F12b energy                 -76.368308713790
  CCSD-T-F12b energy                  -76.367909433960
 !CCSD(T)-F12b total energy           -76.368029999652

 Timing summary (sec):

 STEP                 CPU(USER)    SYS     CPU(TOT)    WALL
 Transformation          0.08      0.01      0.09      0.18
 CCSD iterations         0.60      0.09      0.69      0.68
 Triples                 0.51      0.01      0.52      0.52
 MP2-F12                 2.79      0.10      2.89      2.89
 F12b energy             0.05      0.01      0.06      0.06

 Program statistics:

 Available memory in ccsd:                49999786
 Min. memory needed in ccsd:                145972
 Max. memory used in ccsd:                  166319
 Max. memory used in cckext:                248663 ( 9 integral passes)



 **********************************************************************************************************************************
 DATASETS  * FILE   NREC   LENGTH (MB)   RECORD NAMES
              1      20       56.67       500      610      700      900      950      970     1000      129      960     1100   
                                          VAR    BASINP    GEOM    SYMINP    ZMAT    AOBASIS   BASIS     P2S    ABASIS      S 
                                         1400     1410     1200     1210     1080     1600     1650     1300     1700     1380   
                                           T        V       H0       H01     AOSYM     SMH    MOLCAS    ERIS     OPER     JKOP   

              2       6        2.97       700     1000      520     2100     7360     7350   
                                         GEOM     BASIS   MCVARS     RHF    F12ABS    EF12   

 PROGRAMS   *        TOTAL   CCSD(T)        HF       INT
 CPU TIMES  *         5.09      4.05      0.29      0.64
 REAL TIME  *         6.56 SEC
 DISK USED  *       125.48 MB      
 **********************************************************************************************************************************

 CCSD(T)-F12/cc-pVTZ-F12 energy=    -76.368029999652

     CCSD(T)-F12        HF-SCF  
    -76.36803000    -76.06446549
 **********************************************************************************************************************************
 Molpro calculation terminated
 Variable memory released
