
 Primary working directories    : /tmp/r2518/14891.maple
 Secondary working directories  : /tmp/r2518/14891.maple
 Wavefunction directory         : /ddn/home1/r2518/wfu/
 Main file repository           : /tmp/r2518/14891.maple/

 SHA1      : d5ffa45e93fdbca01ffc919aa182cfdae0147319
 NAME      : 2015.1.35
 ARCHNAME  : linux/x86_64
 FC        : /opt/intel/composer_xe_2015.1.133/bin/intel64/ifort
 BLASLIB   : -Wl,-_start-group /opt/intel/mkl/lib/intel64/libmkl_intel_ilp64.a /opt/intel/mkl/lib/intel64/libmkl_intel_thread.a /opt/intel/mkl/lib/intel64/libmkl_core.a -Wl,-_end-group
 id        : olemiss

 Nodes     nprocs
 cn058        1

 Using customized tuning parameters: mindgm=1; mindgv=20; mindgc=4; mindgr=1; noblas=0; minvec=7
 default implementation of scratch files=df  

 memory,50,m
 nocompress;
 geomtyp=xyz
 angstrom
 geometry={
 O,0.0,0.0,-0.0657441568
 H,0.0,0.7574590974000001,0.5217905143000001
 H,0.0,-0.8074590973999999,0.5217905143
 }
 basis=cc-pVTZ-F12
 set,charge=0
 set,spin=0
 hf
 {CCSD(T)-F12}

 Variables initialized (889), CPU time= 0.00 sec
 Commands  initialized (702), CPU time= 0.01 sec, 572 directives.
 Default parameters read. Elapsed time= 0.06 sec

 Checking input...
 Passed
1


                                         ***  PROGRAM SYSTEM MOLPRO  ***
                                       Copyright, TTI GmbH Stuttgart, 2015
                                    Version 2015.1 linked Jul  9 2018 13:16:40


 **********************************************************************************************************************************
 LABEL *                                                                                 
  64 bit serial version                                                                  DATE: 24-Aug-19          TIME: 16:54:31  
 **********************************************************************************************************************************

 SHA1:             d5ffa45e93fdbca01ffc919aa182cfdae0147319
 **********************************************************************************************************************************

 Input parameters for SORTINT:

 COMPRESS =    0.000000
 C_FINAL  =    1.000000
 DEBUG    =   -1.000000
 C_SORT1  =    0.000000
 C_SEWARD =    0.000000
 THRESH   =    0.000000
 IO       =  molpro                                                          
 SPRI     =    0.000000
 SETTING GEOMTYP        =    XYZ
 ZUNIT=ANG
 

 Variable memory set to   50000000 words,  buffer space   230000 words

 SETTING BASIS          =    CC-PVTZ-F12
 SETTING CHARGE         =     0.00000000D+00                                  
 SETTING SPIN           =     0.00000000D+00                                  


 Recomputing integrals since basis changed


 Using spherical harmonics

 Library entry O      S cc-pVTZ-F12          selected for orbital group  1
 Library entry O      P cc-pVTZ-F12          selected for orbital group  1
 Library entry O      D cc-pVTZ-F12          selected for orbital group  1
 Library entry O      F cc-pVTZ-F12          selected for orbital group  1
 Library entry H      S cc-pVTZ-F12          selected for orbital group  2
 Library entry H      P cc-pVTZ-F12          selected for orbital group  2
 Library entry H      D cc-pVTZ-F12          selected for orbital group  2


 PROGRAM * SEWARD (Integral evaluation for generally contracted gaussian basis sets)     Author: Roland Lindh, 1990

 Geometry written to block  1 of record 700


 Point group  Cs  



 ATOMIC COORDINATES

 NR  ATOM    CHARGE       X              Y              Z

   1  O       8.00    0.000000000    0.000000000   -0.124238451
   2  H       1.00    0.000000000    1.431390245    0.986041166
   3  H       1.00    0.000000000   -1.525876551    0.986041166

 Bond lengths in Bohr (Angstrom)

 1-2  1.811518385  1-3  1.887066527
     ( 0.958614247)     ( 0.998592601)

 Bond angles

  2-1-3  106.15960295

 NUCLEAR CHARGE:                   10
 NUMBER OF PRIMITIVE AOS:         114
 NUMBER OF SYMMETRY AOS:          103
 NUMBER OF CONTRACTIONS:           89   (  61A'  +  28A"  )
 NUMBER OF CORE ORBITALS:           1   (   1A'  +   0A"  )
 NUMBER OF VALENCE ORBITALS:        6   (   5A'  +   1A"  )


 NUCLEAR REPULSION ENERGY    8.99371909

 Eigenvalues of metric

         1 0.228E-03 0.471E-03 0.580E-03 0.717E-03 0.815E-03 0.163E-02 0.207E-02 0.228E-02
         2 0.694E-03 0.888E-02 0.116E-01 0.445E-01 0.842E-01 0.906E-01 0.132E+00 0.194E+00


 Contracted 2-electron integrals neglected if value below      1.0D-11

        3628592. INTEGRALS WRITTEN OUT IN     887 BLOCKS ON RECORD 1290 OF FILE 1


 NUMBER OF SORTED TWO-ELECTRON INTEGRALS:    4174745.     BUFFER LENGTH:  32768
 NUMBER OF SEGMENTS:   1  SEGMENT LENGTH:    4174745      RECORD LENGTH: 524288

 Memory used in sort:       4.73 MW

 SORT1 READ     3628592. AND WROTE     3690316. INTEGRALS IN     11 RECORDS. CPU TIME:     0.12 SEC, REAL TIME:     0.15 SEC
 SORT2 READ     3690316. AND WROTE     4174745. INTEGRALS IN      1 RECORDS. CPU TIME:     0.11 SEC, REAL TIME:     0.13 SEC

 FILE SIZES:   FILE 1:    78.3 MBYTE,  FILE 4:    46.2 MBYTE,   TOTAL:    124.4 MBYTE

 OPERATOR DM      FOR CENTER  0  COORDINATES:    0.000000    0.000000    0.000000


 **********************************************************************************************************************************
 DATASETS  * FILE   NREC   LENGTH (MB)   RECORD NAMES
              1      19       50.78       500      610      700      900      950      970     1000      129      960     1100   
                                          VAR    BASINP    GEOM    SYMINP    ZMAT    AOBASIS   BASIS     P2S    ABASIS      S 
                                         1400     1410     1200     1210     1080     1600     1650     1300     1700   
                                           T        V       H0       H01     AOSYM     SMH    MOLCAS    ERIS     OPER   

 PROGRAMS   *        TOTAL       INT
 CPU TIMES  *         0.74      0.65
 REAL TIME  *         1.06 SEC
 DISK USED  *       124.76 MB      
 **********************************************************************************************************************************


 PROGRAM * RHF-SCF (CLOSED SHELL)       Authors: W. Meyer, H.-J. Werner


 NUMBER OF ELECTRONS:       5+    5-
 CONVERGENCE THRESHOLDS:    1.00E-05 (Density)    1.00E-07 (Energy)
 MAX. NUMBER OF ITERATIONS:       60
 INTERPOLATION TYPE:            DIIS
 INTERPOLATION STEPS:              2 (START)      1 (STEP)
 LEVEL SHIFTS:                  0.00 (CLOSED)  0.00 (OPEN) 



 Orbital guess generated from atomic densities. Full valence occupancy:    6   1

 Molecular orbital dump at record        2100.2

 Initial occupancy:   4   1

 ITERATION    DDIFF          GRAD             ENERGY        2-EL.EN.            DIPOLE MOMENTS         DIIS   ORB.
    1      0.000D+00      0.000D+00       -76.02366628     77.408874    0.00000   -0.06223    1.14242    0    start
    2      0.000D+00      0.136D-01       -76.05044898     73.750104    0.00000   -0.02402    0.67046    1    diag
    3      0.146D-01      0.864D-02       -76.06199254     75.372148    0.00000   -0.03088    0.78718    2    diag
    4      0.513D-02      0.811D-03       -76.06218979     75.280033    0.00000   -0.02818    0.78241    3    diag
    5      0.741D-03      0.228D-03       -76.06221114     75.294386    0.00000   -0.02706    0.78055    4    diag
    6      0.266D-03      0.458D-04       -76.06221255     75.293293    0.00000   -0.02670    0.78006    5    diag
    7      0.775D-04      0.934D-05       -76.06221262     75.293447    0.00000   -0.02660    0.77989    6    diag
    8      0.174D-04      0.181D-05       -76.06221263     75.293434    0.00000   -0.02659    0.77984    7    diag
    9      0.322D-05      0.246D-06       -76.06221263     75.293421    0.00000   -0.02658    0.77984    0    orth

 Final occupancy:   4   1

 !RHF STATE 1.1 Energy                -76.062212626462
 Nuclear energy                         8.99371909
 One-electron energy                 -122.70264202
 Two-electron energy                   37.64671030
 Virial quotient                       -1.00195930
 !RHF STATE 1.1 Dipole moment           0.00000000    -0.02658446     0.77983699
 Dipole moment /Debye                   0.00000000    -0.06756652     1.98201811

 Orbital energies:

         1.1          2.1          3.1          4.1          5.1          6.1
    -20.567739    -1.341433    -0.709504    -0.577600     0.102976     0.120690

         1.2          2.2          3.2
     -0.508334     0.145567     0.478184

 HOMO      1.2    -0.508334 =     -13.8325eV
 LUMO      5.1     0.102976 =       2.8021eV
 LUMO-HOMO         0.611310 =      16.6346eV


 **********************************************************************************************************************************
 DATASETS  * FILE   NREC   LENGTH (MB)   RECORD NAMES
              1      19       50.78       500      610      700      900      950      970     1000      129      960     1100   
                                          VAR    BASINP    GEOM    SYMINP    ZMAT    AOBASIS   BASIS     P2S    ABASIS      S 
                                         1400     1410     1200     1210     1080     1600     1650     1300     1700   
                                           T        V       H0       H01     AOSYM     SMH    MOLCAS    ERIS     OPER   

              2       4        2.88       700     1000      520     2100   
                                         GEOM     BASIS   MCVARS     RHF  

 PROGRAMS   *        TOTAL        HF       INT
 CPU TIMES  *         1.02      0.28      0.65
 REAL TIME  *         1.41 SEC
 DISK USED  *       124.76 MB      
 **********************************************************************************************************************************


 PROGRAM * CCSD (Closed-shell coupled cluster)     Authors: C. Hampel, H.-J. Werner, 1991, M. Deegan, P.J. Knowles, 1992

                                  CCSD-F12 implementation by  H.-J. Werner, 2007

                   Density fitting integral evaluation by F.R. Manby, 2003,2007, G. Knizia, 2010

 Basis set AUG-CC-PVTZ/JKFIT generated.  Number of basis functions:   196 
 Basis set CC-PVTZ-F12/OPTRI generated.  Number of basis functions:   157 
 Basis set AUG-CC-PVTZ/MP2FIT generated. Number of basis functions:   198 

 Convergence thresholds:  THRVAR = 1.00D-08  THRDEN = 1.00D-06

 CCSD(T)     terms to be evaluated (factor= 1.000)


 Number of core orbitals:           1 (   1   0 )
 Number of closed-shell orbitals:   4 (   3   1 )
 Number of external orbitals:      84 (  57  27 )

 Molecular orbitals read from record     2100.2  Type=RHF/CANONICAL (state 1.1)

 MP2-F12 correlation treatment (H.-J. Werner, 2006)
 ==================================================

 Using MP2-F12 with ansatz 3C(FIX)

 Using projected zeroth-order Hamiltonian (+Z)

 FOCKRIB=T FOCKRIC=T FOCKRIP=T CABSP=T CABSA=T CABSK=T CABSF=T GBC=F EBC=F DMAT=T NOFIK=T NOPAO=1 SOLVE=-1  USEPAO=0
 EXCH_A= T EXCH_B= F EXCH_C= F EXCH_P= F
 
 Geminal basis:    OPTFULL  GEM_TYPE=SLATER  BETA=1.0  NGEM=6

 Optimizing Gaussian exponents for each gem_beta

 Geminal optimization for beta= 1.0000
 Weight function:   m=0, omega= 1.4646

 Augmented Hessian optimization of geminal fit. Trust ratio= 0.40000
 Convergence reached after   2 iterations. Final gradient= 8.41D-16, Step= 4.29D-06, Delta= 1.28D-09
 
 Alpha:                 0.19532     0.81920     2.85917     9.50073    35.69989   197.79328
 Coeff:                 0.27070     0.30552     0.18297     0.10986     0.06810     0.04224
 

 Symmetry turned off. Reference energy:        -76.062212626461

 All pairs explicitly correlated. Number of r12-pairs:           10

 Excluding core orbitals from MO domains
 
 AO(A)-basis ORBITAL           loaded. Number of functions:      89
 RI(R)-basis CC-PVTZ-F12/OPTRI loaded. Number of functions:     157
 DF-basis AUG-CC-PVTZ/JKFIT    loaded. Number of functions:     196

 Screening thresholds:   THRAO=  1.00D-10  THRMO=  1.00D-09  THRPROD=  1.00D-09
                         THRSW=  1.00D-05  THROV=  1.00D-12  THRAOF12=   1.00D-08

 CPU time for Fock operators                      1.05 sec
 
 Construction of ABS:
 Smallest eigenvalue of S          8.18E-04  (threshold= 1.00E-08)
 Ratio eigmin/eigmax               1.38E-04  (threshold= 1.00E-09)
 Smallest eigenvalue of S kept     8.18E-04  (threshold= 8.18E-04, 0 functions deleted, 157 kept)
 
 Construction of CABS:
 Smallest eigenvalue of S          2.06E-06  (threshold= 1.00E-08)
 Ratio eigmin/eigmax               2.06E-06  (threshold= 1.00E-09)
 Smallest eigenvalue of S kept     2.06E-06  (threshold= 2.06E-06, 0 functions deleted, 157 kept)
 
 CPU time for CABS singles                        0.01 sec

 CABS-singles contribution of  -0.00097081 patched into reference energy.
 New reference energy         -76.06318344
 
 AO(A)-basis ORBITAL           loaded. Number of functions:      89
 RI(R)-basis CC-PVTZ-F12/OPTRI loaded. Number of functions:     157
 DF-basis AUG-CC-PVTZ/MP2FIT   loaded. Number of functions:     198

 Screening thresholds:   THRAO=  1.00D-10  THRMO=  1.00D-09  THRPROD=  1.00D-09
                         THRSW=  1.00D-05  THROV=  1.00D-12  THRAOF12=   1.00D-08

 CPU time for 3-index integral evaluation         0.55 sec
 CPU time for first  half transformation          0.05 sec ( 3527.2 MFLOP/sec)
 CPU time for second half transformation          0.01 sec (  493.4 MFLOP/sec)
 CPU time for assembly                            0.03 sec (17837.5 MFLOP/sec)
 CPU time for tranop_f12                          0.01 sec (65192.9 MFLOP/sec)
 CPU time for f12 integrals (total)               1.52 sec, Elapsed time:      1.57 sec
 CPU time for f12 matrices (total)                0.02 sec, Elapsed time:      0.02 sec

 Diagonal F12 approximation with fixed coefficients:  TSING= 0.500,  TTRIP= 0.250 (scaled by -1/beta)

 DF-MP2-F12 energy corrections:
 ==============================
 Approx.                                    Singlet             Triplet             Total
 DF-MP2-F12/3*C(DX,FIX)                -0.025161061424     -0.003002129464     -0.028163190889
 DF-MP2-F12/3*C(FIX)                   -0.023394063429     -0.002717142387     -0.026111205817
 DF-MP2-F12/3C(FIX)                    -0.023319701908     -0.002813158356     -0.026132860264

 DF-MP2-F12 correlation energies:
 ================================
 Approx.                                    Singlet             Triplet             Ecorr            Total Energy
 DF-MP2                                -0.174850794901     -0.099710099978     -0.274560894879    -76.337744332291
 DF-MP2-F12/3*C(DX,FIX)                -0.200011856325     -0.102712229443     -0.302724085768    -76.365907523179
 DF-MP2-F12/3*C(FIX)                   -0.198244858330     -0.102427242366     -0.300672100696    -76.363855538107
 DF-MP2-F12/3C(FIX)                    -0.198170496809     -0.102523258334     -0.300693755144    -76.363877192555

 SCS-DF-MP2 energies (F_SING= 1.20000  F_TRIP= 0.62222  F_PARALLEL= 0.33333):
 ============================================================================
 SCS-DF-MP2                            -0.271862793868    -76.335046231279
 SCS-DF-MP2-F12/3*C(DX,FIX)            -0.303924059244    -76.367107496655
 SCS-DF-MP2-F12/3*C(FIX)               -0.301626336357    -76.364809773768
 SCS-DF-MP2-F12/3C(FIX)                -0.301596845801    -76.364780283213

 Symmetry restored.
 Symmetry transformation completed.

 Number of N-1 electron functions:               4
 Number of N-2 electron functions:              10
 Number of singly external CSFs:               198
 Number of doubly external CSFs:             29292
 Total number of CSFs:                       29491

 Length of J-op  integral file:               8.97 MB
 Length of K-op  integral file:              13.62 MB
 Length of 3-ext integral record:             0.00 MB

 Memory could be reduced to 2.37 Mwords without degradation in triples

 Integral transformation finished. Total CPU:   0.08 sec, npass=  1  Memory used:   0.62 MW

 Reference energy:                    -76.06318344

 Adding F12 terms to K(Cij), methodcc=6,  factor= 1.0

 ITER.      SQ.NORM     CORR.ENERGY   TOTAL ENERGY   ENERGY CHANGE        DEN1      VAR(S)    VAR(P)  DIIS     TIME  TIME/IT
   1      1.06265915    -0.27471461   -76.33789804    -0.00011047     0.00588031  0.76D-03  0.10D-02  1  1     2.91     0.07
   2      1.06605495    -0.27446136   -76.33764480     0.00025324    -0.00467784  0.14D-04  0.11D-03  2  2     2.98     0.07
   3      1.06727312    -0.27459667   -76.33778011    -0.00013531    -0.00082332  0.91D-05  0.72D-05  3  3     3.03     0.07
   4      1.06783205    -0.27461915   -76.33780259    -0.00002248    -0.00036431  0.45D-06  0.57D-06  4  4     3.10     0.07
   5      1.06792733    -0.27461761   -76.33780105     0.00000154    -0.00002090  0.13D-06  0.35D-07  5  5     3.16     0.07
   6      1.06795307    -0.27461629   -76.33779973     0.00000132    -0.00000434  0.11D-07  0.36D-08  6  6     3.22     0.08
   7      1.06795965    -0.27461591   -76.33779935     0.00000038    -0.00000149  0.10D-08  0.27D-09  6  1     3.28     0.08
   8      1.06796116    -0.27461597   -76.33779941    -0.00000006    -0.00000001  0.84D-10  0.31D-10  6  2     3.34     0.08

 Norm of t1 vector:      0.03617858      S-energy:    -0.00000012      T1 diagnostic:  0.00904464
                                                                       D1 diagnostic:  0.01811362

 Adding energy correction from Wij-K(Fij), methodcc=6  factor= 1.0
 
  CCSD correlation energy              -0.274615972493
  MP2-F12 correction (uncoupled)       -0.025006631313
  C*T doubles correction               -0.000841296292
  f12b correction                       0.004284441060


 Total CPU time for triples:      0.31 sec


 RESULTS
 =======

  Reference energy                    -76.062212626461
  F12 singles correction               -0.000970810950

 F12 singles corrections added to reference energy

  New reference energy                -76.063183437411

  F12a singlet correction              -0.023140925650
  F12a triplet correction              -0.002707001954
  F12a total correction                -0.025847927605

 F12a corrections for ansatz F12/3C(FIX) added to CCSD energy
 
  CCSD-F12a singlet pair energy        -0.209639583385
  CCSD-F12a triplet pair energy        -0.090824197140
  CCSD-F12a correlation energy         -0.300463900098

  Triples (T) contribution             -0.008912295184
  Total correlation energy             -0.309376195282

  CCSD-F12a total energy              -76.363647337509
  CCSD[T]-F12a energy                 -76.372866773768
  CCSD-T-F12a energy                  -76.372425095261
 !CCSD(T)-F12a total energy           -76.372559632693

 F12b corrections for ansatz F12/3C(FIX) added to CCSD(T)-F12a energy

  CCSD-F12b singlet pair energy        -0.205665832054
  CCSD-F12b triplet pair energy        -0.090513507411
  CCSD-F12b correlation energy         -0.296179459037

  Triples (T) contribution             -0.008912295184
  Total correlation energy             -0.305091754221

  CCSD-F12b total energy              -76.359362896449
  CCSD[T]-F12b energy                 -76.368582332708
  CCSD-T-F12b energy                  -76.368140654201
 !CCSD(T)-F12b total energy           -76.368275191633

 Timing summary (sec):

 STEP                 CPU(USER)    SYS     CPU(TOT)    WALL
 Transformation          0.08      0.01      0.09      0.10
 CCSD iterations         0.51      0.13      0.64      0.66
 Triples                 0.31      0.01      0.32      0.32
 MP2-F12                 2.75      0.08      2.83      2.82
 F12b energy             0.05      0.01      0.06      0.06

 Program statistics:

 Available memory in ccsd:                49999786
 Min. memory needed in ccsd:                145972
 Max. memory used in ccsd:                  166319
 Max. memory used in cckext:                248663 ( 9 integral passes)



 **********************************************************************************************************************************
 DATASETS  * FILE   NREC   LENGTH (MB)   RECORD NAMES
              1      20       56.28       500      610      700      900      950      970     1000      129      960     1100   
                                          VAR    BASINP    GEOM    SYMINP    ZMAT    AOBASIS   BASIS     P2S    ABASIS      S 
                                         1400     1410     1200     1210     1080     1600     1650     1300     1700     1380   
                                           T        V       H0       H01     AOSYM     SMH    MOLCAS    ERIS     OPER     JKOP   

              2       6        2.97       700     1000      520     2100     7360     7350   
                                         GEOM     BASIS   MCVARS     RHF    F12ABS    EF12   

 PROGRAMS   *        TOTAL   CCSD(T)        HF       INT
 CPU TIMES  *         4.76      3.73      0.28      0.65
 REAL TIME  *         5.50 SEC
 DISK USED  *       124.76 MB      
 **********************************************************************************************************************************

 CCSD(T)-F12/cc-pVTZ-F12 energy=    -76.368275191633

     CCSD(T)-F12        HF-SCF  
    -76.36827519    -76.06221263
 **********************************************************************************************************************************
 Molpro calculation terminated
 Variable memory released
