
 Primary working directories    : /tmp/r2518/22841.maple
 Secondary working directories  : /tmp/r2518/22841.maple
 Wavefunction directory         : /ddn/home1/r2518/wfu/
 Main file repository           : /tmp/r2518/22841.maple/

 SHA1      : d5ffa45e93fdbca01ffc919aa182cfdae0147319
 NAME      : 2015.1.35
 ARCHNAME  : linux/x86_64
 FC        : /opt/intel/composer_xe_2015.1.133/bin/intel64/ifort
 BLASLIB   : -Wl,-_start-group /opt/intel/mkl/lib/intel64/libmkl_intel_ilp64.a /opt/intel/mkl/lib/intel64/libmkl_intel_thread.a /opt/intel/mkl/lib/intel64/libmkl_core.a -Wl,-_end-group
 id        : olemiss

 Nodes     nprocs
 cn055        1

 Using customized tuning parameters: mindgm=1; mindgv=20; mindgc=4; mindgr=1; noblas=0; minvec=7
 default implementation of scratch files=df  

 memory,50,m
 nocompress;
 geomtyp=xyz
 angstrom
 geometry={
 O,0.0,0.0,-0.0657441568
 H,0.05,0.8074590974,0.5217905143
 H,0.0,-0.7574590974,0.5217905143
 }
 basis=cc-pVTZ-F12
 set,charge=0
 set,spin=0
 hf
 {CCSD(T)-F12}

 Variables initialized (889), CPU time= 0.01 sec
 Commands  initialized (702), CPU time= 0.01 sec, 572 directives.
 Default parameters read. Elapsed time= 0.08 sec

 Checking input...
 Passed
1


                                         ***  PROGRAM SYSTEM MOLPRO  ***
                                       Copyright, TTI GmbH Stuttgart, 2015
                                    Version 2015.1 linked Jul  9 2018 13:16:40


 **********************************************************************************************************************************
 LABEL *                                                                                 
  64 bit serial version                                                                  DATE: 28-Aug-19          TIME: 15:37:26  
 **********************************************************************************************************************************

 SHA1:             d5ffa45e93fdbca01ffc919aa182cfdae0147319
 **********************************************************************************************************************************

 Input parameters for SORTINT:

 COMPRESS =    0.000000
 C_FINAL  =    1.000000
 DEBUG    =   -1.000000
 C_SORT1  =    0.000000
 C_SEWARD =    0.000000
 THRESH   =    0.000000
 IO       =  molpro                                                          
 SPRI     =    0.000000
 SETTING GEOMTYP        =    XYZ
 ZUNIT=ANG
 

 Variable memory set to   50000000 words,  buffer space   230000 words

 SETTING BASIS          =    CC-PVTZ-F12
 SETTING CHARGE         =     0.00000000D+00                                  
 SETTING SPIN           =     0.00000000D+00                                  


 Recomputing integrals since basis changed


 Using spherical harmonics

 Library entry O      S cc-pVTZ-F12          selected for orbital group  1
 Library entry O      P cc-pVTZ-F12          selected for orbital group  1
 Library entry O      D cc-pVTZ-F12          selected for orbital group  1
 Library entry O      F cc-pVTZ-F12          selected for orbital group  1
 Library entry H      S cc-pVTZ-F12          selected for orbital group  2
 Library entry H      P cc-pVTZ-F12          selected for orbital group  2
 Library entry H      D cc-pVTZ-F12          selected for orbital group  2


 PROGRAM * SEWARD (Integral evaluation for generally contracted gaussian basis sets)     Author: Roland Lindh, 1990

 Geometry written to block  1 of record 700


 Point group  C1  



 ATOMIC COORDINATES

 NR  ATOM    CHARGE       X              Y              Z

   1  O       8.00    0.000000000    0.000000000   -0.124238451
   2  H       1.00    0.094486306    1.525876551    0.986041166
   3  H       1.00    0.000000000   -1.431390245    0.986041166

 Bond lengths in Bohr (Angstrom)

 1-2  1.889430533  1-3  1.811518385
     ( 0.999843580)     ( 0.958614247)

 Bond angles

  2-1-3  106.13883185

 NUCLEAR CHARGE:                   10
 NUMBER OF PRIMITIVE AOS:         114
 NUMBER OF SYMMETRY AOS:          103
 NUMBER OF CONTRACTIONS:           89   (  89A   )
 NUMBER OF CORE ORBITALS:           1   (   1A   )
 NUMBER OF VALENCE ORBITALS:        6   (   6A   )


 NUCLEAR REPULSION ENERGY    8.98824242


 Eigenvalues of metric

         1 0.229E-03 0.471E-03 0.580E-03 0.694E-03 0.717E-03 0.816E-03 0.163E-02 0.207E-02


 Contracted 2-electron integrals neglected if value below      1.0D-11

        5897304. INTEGRALS WRITTEN OUT IN    1441 BLOCKS ON RECORD 1290 OF FILE 1


 NUMBER OF SORTED TWO-ELECTRON INTEGRALS:    8022015.     BUFFER LENGTH:  32768
 NUMBER OF SEGMENTS:   1  SEGMENT LENGTH:    8022015      RECORD LENGTH: 524288

 Memory used in sort:       8.58 MW

 SORT1 READ     5897304. AND WROTE     5897304. INTEGRALS IN     17 RECORDS. CPU TIME:     0.20 SEC, REAL TIME:     0.24 SEC
 SORT2 READ     5897304. AND WROTE     8022015. INTEGRALS IN      1 RECORDS. CPU TIME:     0.17 SEC, REAL TIME:     0.20 SEC

 FILE SIZES:   FILE 1:   114.6 MBYTE,  FILE 4:    71.3 MBYTE,   TOTAL:    186.0 MBYTE

 OPERATOR DM      FOR CENTER  0  COORDINATES:    0.000000    0.000000    0.000000


 **********************************************************************************************************************************
 DATASETS  * FILE   NREC   LENGTH (MB)   RECORD NAMES
              1      19       70.14       500      610      700      900      950      970     1000      129      960     1100   
                                          VAR    BASINP    GEOM    SYMINP    ZMAT    AOBASIS   BASIS     P2S    ABASIS      S 
                                         1400     1410     1200     1210     1080     1600     1650     1300     1700   
                                           T        V       H0       H01     AOSYM     SMH    MOLCAS    ERIS     OPER   

 PROGRAMS   *        TOTAL       INT
 CPU TIMES  *         0.93      0.83
 REAL TIME  *         1.75 SEC
 DISK USED  *       186.30 MB      
 **********************************************************************************************************************************


 PROGRAM * RHF-SCF (CLOSED SHELL)       Authors: W. Meyer, H.-J. Werner


 NUMBER OF ELECTRONS:       5+    5-    SPACE SYMMETRY=1    SPIN SYMMETRY: Singlet 
 CONVERGENCE THRESHOLDS:    1.00E-05 (Density)    1.00E-07 (Energy)
 MAX. NUMBER OF ITERATIONS:       60
 INTERPOLATION TYPE:            DIIS
 INTERPOLATION STEPS:              2 (START)      1 (STEP)
 LEVEL SHIFTS:                  0.00 (CLOSED)  0.00 (OPEN) 



 Orbital guess generated from atomic densities. Full valence occupancy:    7

 Molecular orbital dump at record        2100.2

 Initial occupancy:   5

 ITERATION    DDIFF          GRAD             ENERGY        2-EL.EN.            DIPOLE MOMENTS         DIIS   ORB.
    1      0.000D+00      0.000D+00       -76.02350315     77.401313    0.04906    0.06267    1.14246    0    start
    2      0.000D+00      0.106D-01       -76.05029096     73.739854    0.02836    0.02387    0.67003    1    diag
    3      0.111D-01      0.674D-02       -76.06185777     75.363555    0.03340    0.03079    0.78690    2    diag
    4      0.389D-02      0.632D-03       -76.06205555     75.271402    0.03311    0.02801    0.78209    3    diag
    5      0.562D-03      0.178D-03       -76.06207703     75.285784    0.03300    0.02686    0.78021    4    diag
    6      0.202D-03      0.358D-04       -76.06207845     75.284684    0.03296    0.02648    0.77972    5    diag
    7      0.588D-04      0.732D-05       -76.06207853     75.284838    0.03295    0.02638    0.77955    6    diag
    8      0.132D-04      0.141D-05       -76.06207853     75.284824    0.03295    0.02636    0.77950    7    diag
    9      0.244D-05      0.193D-06       -76.06207853     75.284811    0.03295    0.02636    0.77950    0    orth

 Final occupancy:   5

 !RHF STATE 1.1 Energy                -76.062078527739
 Nuclear energy                         8.98824242
 One-electron energy                 -122.69272644
 Two-electron energy                   37.64240549
 Virial quotient                       -1.00198500
 !RHF STATE 1.1 Dipole moment           0.03295063     0.02636288     0.77949527
 Dipole moment /Debye                   0.08374665     0.06700337     1.98114959

 Orbital energies:

         1.1          2.1          3.1          4.1          5.1          6.1          7.1
    -20.567849    -1.341165    -0.709139    -0.577512    -0.508293     0.102975     0.120713

 HOMO      5.1    -0.508293 =     -13.8314eV
 LUMO      6.1     0.102975 =       2.8021eV
 LUMO-HOMO         0.611268 =      16.6335eV


 **********************************************************************************************************************************
 DATASETS  * FILE   NREC   LENGTH (MB)   RECORD NAMES
              1      19       70.14       500      610      700      900      950      970     1000      129      960     1100   
                                          VAR    BASINP    GEOM    SYMINP    ZMAT    AOBASIS   BASIS     P2S    ABASIS      S 
                                         1400     1410     1200     1210     1080     1600     1650     1300     1700   
                                           T        V       H0       H01     AOSYM     SMH    MOLCAS    ERIS     OPER   

              2       4        2.95       700     1000      520     2100   
                                         GEOM     BASIS   MCVARS     RHF  

 PROGRAMS   *        TOTAL        HF       INT
 CPU TIMES  *         1.67      0.74      0.83
 REAL TIME  *         2.59 SEC
 DISK USED  *       186.30 MB      
 **********************************************************************************************************************************


 PROGRAM * CCSD (Closed-shell coupled cluster)     Authors: C. Hampel, H.-J. Werner, 1991, M. Deegan, P.J. Knowles, 1992

                                  CCSD-F12 implementation by  H.-J. Werner, 2007

                   Density fitting integral evaluation by F.R. Manby, 2003,2007, G. Knizia, 2010

 Basis set AUG-CC-PVTZ/JKFIT generated.  Number of basis functions:   196 
 Basis set CC-PVTZ-F12/OPTRI generated.  Number of basis functions:   157 
 Basis set AUG-CC-PVTZ/MP2FIT generated. Number of basis functions:   198 

 Convergence thresholds:  THRVAR = 1.00D-08  THRDEN = 1.00D-06

 CCSD(T)     terms to be evaluated (factor= 1.000)


 Number of core orbitals:           1 (   1 )
 Number of closed-shell orbitals:   4 (   4 )
 Number of external orbitals:      84 (  84 )

 Molecular orbitals read from record     2100.2  Type=RHF/CANONICAL (state 1.1)

 MP2-F12 correlation treatment (H.-J. Werner, 2006)
 ==================================================

 Using MP2-F12 with ansatz 3C(FIX)

 Using projected zeroth-order Hamiltonian (+Z)

 FOCKRIB=T FOCKRIC=T FOCKRIP=T CABSP=T CABSA=T CABSK=T CABSF=T GBC=F EBC=F DMAT=T NOFIK=T NOPAO=1 SOLVE=-1  USEPAO=0
 EXCH_A= T EXCH_B= F EXCH_C= F EXCH_P= F
 
 Geminal basis:    OPTFULL  GEM_TYPE=SLATER  BETA=1.0  NGEM=6

 Optimizing Gaussian exponents for each gem_beta

 Geminal optimization for beta= 1.0000
 Weight function:   m=0, omega= 1.4646

 Augmented Hessian optimization of geminal fit. Trust ratio= 0.40000
 Convergence reached after   2 iterations. Final gradient= 8.41D-16, Step= 4.29D-06, Delta= 1.28D-09
 
 Alpha:                 0.19532     0.81920     2.85917     9.50073    35.69989   197.79328
 Coeff:                 0.27070     0.30552     0.18297     0.10986     0.06810     0.04224
 

 All pairs explicitly correlated. Number of r12-pairs:           10

 Excluding core orbitals from MO domains
 
 AO(A)-basis ORBITAL           loaded. Number of functions:      89
 RI(R)-basis CC-PVTZ-F12/OPTRI loaded. Number of functions:     157
 DF-basis AUG-CC-PVTZ/JKFIT    loaded. Number of functions:     196

 Screening thresholds:   THRAO=  1.00D-10  THRMO=  1.00D-09  THRPROD=  1.00D-09
                         THRSW=  1.00D-05  THROV=  1.00D-12  THRAOF12=   1.00D-08

 CPU time for Fock operators                      0.42 sec
 
 Construction of ABS:
 Smallest eigenvalue of S          8.18E-04  (threshold= 1.00E-08)
 Ratio eigmin/eigmax               1.38E-04  (threshold= 1.00E-09)
 Smallest eigenvalue of S kept     8.18E-04  (threshold= 8.18E-04, 0 functions deleted, 157 kept)
 
 Construction of CABS:
 Smallest eigenvalue of S          2.07E-06  (threshold= 1.00E-08)
 Ratio eigmin/eigmax               2.07E-06  (threshold= 1.00E-09)
 Smallest eigenvalue of S kept     2.07E-06  (threshold= 2.07E-06, 0 functions deleted, 157 kept)
 
 CPU time for CABS singles                        0.01 sec

 CABS-singles contribution of  -0.00096976 patched into reference energy.
 New reference energy         -76.06304828
 
 AO(A)-basis ORBITAL           loaded. Number of functions:      89
 RI(R)-basis CC-PVTZ-F12/OPTRI loaded. Number of functions:     157
 DF-basis AUG-CC-PVTZ/MP2FIT   loaded. Number of functions:     198

 Screening thresholds:   THRAO=  1.00D-10  THRMO=  1.00D-09  THRPROD=  1.00D-09
                         THRSW=  1.00D-05  THROV=  1.00D-12  THRAOF12=   1.00D-08

 CPU time for 3-index integral evaluation         0.56 sec
 CPU time for first  half transformation          0.04 sec ( 4409.0 MFLOP/sec)
 CPU time for second half transformation          0.01 sec (  493.4 MFLOP/sec)
 CPU time for sorting                             0.02 sec
 CPU time for tilde quantities                    0.01 sec (10820.3 MFLOP/sec)
 CPU time for tranop_f12                          0.03 sec (21731.0 MFLOP/sec)
 CPU time for f12 integrals (total)               0.75 sec, Elapsed time:      0.77 sec
 CPU time for f12 matrices (total)                0.01 sec, Elapsed time:      0.01 sec

 Diagonal F12 approximation with fixed coefficients:  TSING= 0.500,  TTRIP= 0.250 (scaled by -1/beta)

 DF-MP2-F12 energy corrections:
 ==============================
 Approx.                                    Singlet             Triplet             Total
 DF-MP2-F12/3*C(DX,FIX)                -0.025157823362     -0.003001551296     -0.028159374658
 DF-MP2-F12/3*C(FIX)                   -0.023391714666     -0.002716739729     -0.026108454395
 DF-MP2-F12/3C(FIX)                    -0.023317347511     -0.002812743896     -0.026130091407

 DF-MP2-F12 correlation energies:
 ================================
 Approx.                                    Singlet             Triplet             Ecorr            Total Energy
 DF-MP2                                -0.174885501601     -0.099727028222     -0.274612529824    -76.337660814262
 DF-MP2-F12/3*C(DX,FIX)                -0.200043324963     -0.102728579518     -0.302771904481    -76.365820188920
 DF-MP2-F12/3*C(FIX)                   -0.198277216268     -0.102443767951     -0.300720984219    -76.363769268657
 DF-MP2-F12/3C(FIX)                    -0.198202849112     -0.102539772118     -0.300742621231    -76.363790905669

 SCS-DF-MP2 energies (F_SING= 1.20000  F_TRIP= 0.62222  F_PARALLEL= 0.33333):
 ============================================================================
 SCS-DF-MP2                            -0.271914975038    -76.334963259476
 SCS-DF-MP2-F12/3*C(DX,FIX)            -0.303971994989    -76.367020279428
 SCS-DF-MP2-F12/3*C(FIX)               -0.301675448468    -76.364723732907
 SCS-DF-MP2-F12/3C(FIX)                -0.301645943809    -76.364694228247
 Symmetry transformation completed.

 Number of N-1 electron functions:               4
 Number of N-2 electron functions:              10
 Number of singly external CSFs:               336
 Number of doubly external CSFs:             56616
 Total number of CSFs:                       56953

 Length of J-op  integral file:               9.11 MB
 Length of K-op  integral file:              14.70 MB
 Length of 3-ext integral record:             0.00 MB

 Memory could be reduced to 4.35 Mwords without degradation in triples

 Integral transformation finished. Total CPU:   0.19 sec, npass=  1  Memory used:   2.09 MW

 Reference energy:                    -76.06304828

 Adding F12 terms to K(Cij), methodcc=6,  factor= 1.0

 ITER.      SQ.NORM     CORR.ENERGY   TOTAL ENERGY   ENERGY CHANGE        DEN1      VAR(S)    VAR(P)  DIIS     TIME  TIME/IT
   1      1.06270059    -0.27476007   -76.33780835    -0.00010428     0.00589449  0.76D-03  0.10D-02  1  1     1.59     0.16
   2      1.06610342    -0.27450722   -76.33755550     0.00025285    -0.00468392  0.14D-04  0.11D-03  2  2     1.75     0.16
   3      1.06732537    -0.27464293   -76.33769122    -0.00013571    -0.00082501  0.92D-05  0.73D-05  3  3     1.91     0.16
   4      1.06788632    -0.27466547   -76.33771375    -0.00002254    -0.00036529  0.45D-06  0.57D-06  4  4     2.07     0.17
   5      1.06798194    -0.27466392   -76.33771221     0.00000155    -0.00002098  0.13D-06  0.35D-07  5  5     2.22     0.17
   6      1.06800777    -0.27466260   -76.33771089     0.00000132    -0.00000435  0.11D-07  0.36D-08  6  6     2.38     0.17
   7      1.06801437    -0.27466222   -76.33771051     0.00000038    -0.00000150  0.10D-08  0.28D-09  6  1     2.52     0.17
   8      1.06801589    -0.27466228   -76.33771057    -0.00000006    -0.00000001  0.84D-10  0.31D-10  6  2     2.66     0.17

 Norm of t1 vector:      0.03622440      S-energy:    -0.00000012      T1 diagnostic:  0.00905610
                                                                       D1 diagnostic:  0.01813820

 Adding energy correction from Wij-K(Fij), methodcc=6  factor= 1.0
 
  CCSD correlation energy              -0.274662283488
  MP2-F12 correction (uncoupled)       -0.025003777377
  C*T doubles correction               -0.000841270670
  f12b correction                       0.004284762495


 Total CPU time for triples:      1.34 sec


 RESULTS
 =======

  Reference energy                    -76.062078527739
  F12 singles correction               -0.000969756699

 F12 singles corrections added to reference energy

  New reference energy                -76.063048284439

  F12a singlet correction              -0.023138463612
  F12a triplet correction              -0.002706584436
  F12a total correction                -0.025845048048

 F12a corrections for ansatz F12/3C(FIX) added to CCSD energy
 
  CCSD-F12a singlet pair energy        -0.209679620777
  CCSD-F12a triplet pair energy        -0.090827590662
  CCSD-F12a correlation energy         -0.300507331536

  Triples (T) contribution             -0.008918914571
  Total correlation energy             -0.309426246107

  CCSD-F12a total energy              -76.363555615975
  CCSD[T]-F12a energy                 -76.372782250585
  CCSD-T-F12a energy                  -76.372339703375
 !CCSD(T)-F12a total energy           -76.372474530545

 F12b corrections for ansatz F12/3C(FIX) added to CCSD(T)-F12a energy

  CCSD-F12b singlet pair energy        -0.205705519106
  CCSD-F12b triplet pair energy        -0.090516929838
  CCSD-F12b correlation energy         -0.296222569041

  Triples (T) contribution             -0.008918914571
  Total correlation energy             -0.305141483612

  CCSD-F12b total energy              -76.359270853480
  CCSD[T]-F12b energy                 -76.368497488090
  CCSD-T-F12b energy                  -76.368054940880
 !CCSD(T)-F12b total energy           -76.368189768050

 Timing summary (sec):

 STEP                 CPU(USER)    SYS     CPU(TOT)    WALL
 Transformation          0.20      0.02      0.22      0.22
 CCSD iterations         1.25      0.15      1.40      1.40
 Triples                 1.34      0.02      1.36      1.35
 MP2-F12                 1.21      0.05      1.26      1.26
 F12b energy             0.11      0.02      0.13      0.14

 Program statistics:

 Available memory in ccsd:                49999786
 Min. memory needed in ccsd:                269472
 Max. memory used in ccsd:                  308684
 Max. memory used in cckext:                227914 ( 9 integral passes)



 **********************************************************************************************************************************
 DATASETS  * FILE   NREC   LENGTH (MB)   RECORD NAMES
              1      20       80.82       500      610      700      900      950      970     1000      129      960     1100   
                                          VAR    BASINP    GEOM    SYMINP    ZMAT    AOBASIS   BASIS     P2S    ABASIS      S 
                                         1400     1410     1200     1210     1080     1600     1650     1300     1700     1380   
                                           T        V       H0       H01     AOSYM     SMH    MOLCAS    ERIS     OPER     JKOP   

              2       6        3.11       700     1000      520     2100     7360     7350   
                                         GEOM     BASIS   MCVARS     RHF    F12ABS    EF12   

 PROGRAMS   *        TOTAL   CCSD(T)        HF       INT
 CPU TIMES  *         5.81      4.14      0.74      0.83
 REAL TIME  *         7.24 SEC
 DISK USED  *       186.30 MB      
 **********************************************************************************************************************************

 CCSD(T)-F12/cc-pVTZ-F12 energy=    -76.368189768050

     CCSD(T)-F12        HF-SCF  
    -76.36818977    -76.06207853
 **********************************************************************************************************************************
 Molpro calculation terminated
 Variable memory released
