
 Primary working directories    : /tmp/r2518/22914.maple
 Secondary working directories  : /tmp/r2518/22914.maple
 Wavefunction directory         : /ddn/home1/r2518/wfu/
 Main file repository           : /tmp/r2518/22914.maple/

 SHA1      : d5ffa45e93fdbca01ffc919aa182cfdae0147319
 NAME      : 2015.1.35
 ARCHNAME  : linux/x86_64
 FC        : /opt/intel/composer_xe_2015.1.133/bin/intel64/ifort
 BLASLIB   : -Wl,-_start-group /opt/intel/mkl/lib/intel64/libmkl_intel_ilp64.a /opt/intel/mkl/lib/intel64/libmkl_intel_thread.a /opt/intel/mkl/lib/intel64/libmkl_core.a -Wl,-_end-group
 id        : olemiss

 Nodes     nprocs
 cn060        1

 Using customized tuning parameters: mindgm=1; mindgv=20; mindgc=4; mindgr=1; noblas=0; minvec=7
 default implementation of scratch files=df  

 memory,50,m
 nocompress;
 geomtyp=xyz
 angstrom
 geometry={
 O,0.0,-0.05,-0.0657441568
 H,0.0,0.7574590974,0.5217905143
 H,0.0,-0.7574590974,0.5717905143
 }
 basis=cc-pVTZ-F12
 set,charge=0
 set,spin=0
 hf
 {CCSD(T)-F12}

 Variables initialized (889), CPU time= 0.00 sec
 Commands  initialized (702), CPU time= 0.01 sec, 572 directives.
 Default parameters read. Elapsed time= 0.06 sec

 Checking input...
 Passed
1


                                         ***  PROGRAM SYSTEM MOLPRO  ***
                                       Copyright, TTI GmbH Stuttgart, 2015
                                    Version 2015.1 linked Jul  9 2018 13:16:40


 **********************************************************************************************************************************
 LABEL *                                                                                 
  64 bit serial version                                                                  DATE: 28-Aug-19          TIME: 15:37:36  
 **********************************************************************************************************************************

 SHA1:             d5ffa45e93fdbca01ffc919aa182cfdae0147319
 **********************************************************************************************************************************

 Input parameters for SORTINT:

 COMPRESS =    0.000000
 C_FINAL  =    1.000000
 DEBUG    =   -1.000000
 C_SORT1  =    0.000000
 C_SEWARD =    0.000000
 THRESH   =    0.000000
 IO       =  molpro                                                          
 SPRI     =    0.000000
 SETTING GEOMTYP        =    XYZ
 ZUNIT=ANG
 

 Variable memory set to   50000000 words,  buffer space   230000 words

 SETTING BASIS          =    CC-PVTZ-F12
 SETTING CHARGE         =     0.00000000D+00                                  
 SETTING SPIN           =     0.00000000D+00                                  


 Recomputing integrals since basis changed


 Using spherical harmonics

 Library entry O      S cc-pVTZ-F12          selected for orbital group  1
 Library entry O      P cc-pVTZ-F12          selected for orbital group  1
 Library entry O      D cc-pVTZ-F12          selected for orbital group  1
 Library entry O      F cc-pVTZ-F12          selected for orbital group  1
 Library entry H      S cc-pVTZ-F12          selected for orbital group  2
 Library entry H      P cc-pVTZ-F12          selected for orbital group  2
 Library entry H      D cc-pVTZ-F12          selected for orbital group  2


 PROGRAM * SEWARD (Integral evaluation for generally contracted gaussian basis sets)     Author: Roland Lindh, 1990

 Geometry written to block  1 of record 700


 Point group  Cs  



 ATOMIC COORDINATES

 NR  ATOM    CHARGE       X              Y              Z

   1  O       8.00    0.000000000   -0.094486306   -0.124238451
   2  H       1.00    0.000000000    1.431390245    0.986041166
   3  H       1.00    0.000000000   -1.431390245    1.080527473

 Bond lengths in Bohr (Angstrom)

 1-2  1.887066527  1-3  1.799659154
     ( 0.998592601)     ( 0.952338612)

 Bond angles

  2-1-3  101.93514302

 NUCLEAR CHARGE:                   10
 NUMBER OF PRIMITIVE AOS:         114
 NUMBER OF SYMMETRY AOS:          103
 NUMBER OF CONTRACTIONS:           89   (  61A'  +  28A"  )
 NUMBER OF CORE ORBITALS:           1   (   1A'  +   0A"  )
 NUMBER OF VALENCE ORBITALS:        6   (   5A'  +   1A"  )


 NUCLEAR REPULSION ENERGY    9.03379104

 Eigenvalues of metric

         1 0.226E-03 0.477E-03 0.580E-03 0.717E-03 0.811E-03 0.161E-02 0.207E-02 0.221E-02
         2 0.693E-03 0.874E-02 0.115E-01 0.454E-01 0.842E-01 0.890E-01 0.136E+00 0.192E+00


 Contracted 2-electron integrals neglected if value below      1.0D-11

        3676685. INTEGRALS WRITTEN OUT IN     898 BLOCKS ON RECORD 1290 OF FILE 1


 NUMBER OF SORTED TWO-ELECTRON INTEGRALS:    4174745.     BUFFER LENGTH:  32768
 NUMBER OF SEGMENTS:   1  SEGMENT LENGTH:    4174745      RECORD LENGTH: 524288

 Memory used in sort:       4.73 MW

 SORT1 READ     3676685. AND WROTE     3739801. INTEGRALS IN     11 RECORDS. CPU TIME:     0.13 SEC, REAL TIME:     0.16 SEC
 SORT2 READ     3739801. AND WROTE     4174745. INTEGRALS IN      1 RECORDS. CPU TIME:     0.12 SEC, REAL TIME:     0.14 SEC

 FILE SIZES:   FILE 1:    79.0 MBYTE,  FILE 4:    46.2 MBYTE,   TOTAL:    125.2 MBYTE

 OPERATOR DM      FOR CENTER  0  COORDINATES:    0.000000    0.000000    0.000000


 **********************************************************************************************************************************
 DATASETS  * FILE   NREC   LENGTH (MB)   RECORD NAMES
              1      19       51.17       500      610      700      900      950      970     1000      129      960     1100   
                                          VAR    BASINP    GEOM    SYMINP    ZMAT    AOBASIS   BASIS     P2S    ABASIS      S 
                                         1400     1410     1200     1210     1080     1600     1650     1300     1700   
                                           T        V       H0       H01     AOSYM     SMH    MOLCAS    ERIS     OPER   

 PROGRAMS   *        TOTAL       INT
 CPU TIMES  *         0.75      0.65
 REAL TIME  *         1.16 SEC
 DISK USED  *       125.48 MB      
 **********************************************************************************************************************************


 PROGRAM * RHF-SCF (CLOSED SHELL)       Authors: W. Meyer, H.-J. Werner


 NUMBER OF ELECTRONS:       5+    5-
 CONVERGENCE THRESHOLDS:    1.00E-05 (Density)    1.00E-07 (Energy)
 MAX. NUMBER OF ITERATIONS:       60
 INTERPOLATION TYPE:            DIIS
 INTERPOLATION STEPS:              2 (START)      1 (STEP)
 LEVEL SHIFTS:                  0.00 (CLOSED)  0.00 (OPEN) 



 Orbital guess generated from atomic densities. Full valence occupancy:    6   1

 Molecular orbital dump at record        2100.2

 Initial occupancy:   4   1

 ITERATION    DDIFF          GRAD             ENERGY        2-EL.EN.            DIPOLE MOMENTS         DIIS   ORB.
    1      0.000D+00      0.000D+00       -76.02304271     77.436570    0.00000    0.11113    1.18129    0    start
    2      0.000D+00      0.137D-01       -76.05028281     73.788075    0.00000    0.04986    0.68760    1    diag
    3      0.147D-01      0.869D-02       -76.06196127     75.411845    0.00000    0.06220    0.81157    2    diag
    4      0.515D-02      0.819D-03       -76.06215831     75.319140    0.00000    0.05897    0.80686    3    diag
    5      0.740D-03      0.232D-03       -76.06218039     75.334281    0.00000    0.05761    0.80519    4    diag
    6      0.271D-03      0.467D-04       -76.06218185     75.333179    0.00000    0.05717    0.80478    5    diag
    7      0.776D-04      0.955D-05       -76.06218192     75.333325    0.00000    0.05705    0.80465    6    diag
    8      0.170D-04      0.173D-05       -76.06218192     75.333312    0.00000    0.05704    0.80461    7    diag
    9      0.316D-05      0.217D-06       -76.06218192     75.333297    0.00000    0.05704    0.80460    0    orth

 Final occupancy:   4   1

 !RHF STATE 1.1 Energy                -76.062181920731
 Nuclear energy                         9.03379104
 One-electron energy                 -122.76262153
 Two-electron energy                   37.66664857
 Virial quotient                       -1.00169931
 !RHF STATE 1.1 Dipole moment           0.00000000     0.05703704     0.80460448
 Dipole moment /Debye                   0.00000000     0.14496420     2.04496666

 Orbital energies:

         1.1          2.1          3.1          4.1          5.1          6.1
    -20.569090    -1.346045    -0.703327    -0.586325     0.101305     0.122028

         1.2          2.2          3.2
     -0.509875     0.145388     0.481775

 HOMO      1.2    -0.509875 =     -13.8744eV
 LUMO      5.1     0.101305 =       2.7567eV
 LUMO-HOMO         0.611180 =      16.6311eV


 **********************************************************************************************************************************
 DATASETS  * FILE   NREC   LENGTH (MB)   RECORD NAMES
              1      19       51.17       500      610      700      900      950      970     1000      129      960     1100   
                                          VAR    BASINP    GEOM    SYMINP    ZMAT    AOBASIS   BASIS     P2S    ABASIS      S 
                                         1400     1410     1200     1210     1080     1600     1650     1300     1700   
                                           T        V       H0       H01     AOSYM     SMH    MOLCAS    ERIS     OPER   

              2       4        2.88       700     1000      520     2100   
                                         GEOM     BASIS   MCVARS     RHF  

 PROGRAMS   *        TOTAL        HF       INT
 CPU TIMES  *         1.03      0.28      0.65
 REAL TIME  *         1.53 SEC
 DISK USED  *       125.48 MB      
 **********************************************************************************************************************************


 PROGRAM * CCSD (Closed-shell coupled cluster)     Authors: C. Hampel, H.-J. Werner, 1991, M. Deegan, P.J. Knowles, 1992

                                  CCSD-F12 implementation by  H.-J. Werner, 2007

                   Density fitting integral evaluation by F.R. Manby, 2003,2007, G. Knizia, 2010

 Basis set AUG-CC-PVTZ/JKFIT generated.  Number of basis functions:   196 
 Basis set CC-PVTZ-F12/OPTRI generated.  Number of basis functions:   157 
 Basis set AUG-CC-PVTZ/MP2FIT generated. Number of basis functions:   198 

 Convergence thresholds:  THRVAR = 1.00D-08  THRDEN = 1.00D-06

 CCSD(T)     terms to be evaluated (factor= 1.000)


 Number of core orbitals:           1 (   1   0 )
 Number of closed-shell orbitals:   4 (   3   1 )
 Number of external orbitals:      84 (  57  27 )

 Molecular orbitals read from record     2100.2  Type=RHF/CANONICAL (state 1.1)

 MP2-F12 correlation treatment (H.-J. Werner, 2006)
 ==================================================

 Using MP2-F12 with ansatz 3C(FIX)

 Using projected zeroth-order Hamiltonian (+Z)

 FOCKRIB=T FOCKRIC=T FOCKRIP=T CABSP=T CABSA=T CABSK=T CABSF=T GBC=F EBC=F DMAT=T NOFIK=T NOPAO=1 SOLVE=-1  USEPAO=0
 EXCH_A= T EXCH_B= F EXCH_C= F EXCH_P= F
 
 Geminal basis:    OPTFULL  GEM_TYPE=SLATER  BETA=1.0  NGEM=6

 Optimizing Gaussian exponents for each gem_beta

 Geminal optimization for beta= 1.0000
 Weight function:   m=0, omega= 1.4646

 Augmented Hessian optimization of geminal fit. Trust ratio= 0.40000
 Convergence reached after   2 iterations. Final gradient= 8.41D-16, Step= 4.29D-06, Delta= 1.28D-09
 
 Alpha:                 0.19532     0.81920     2.85917     9.50073    35.69989   197.79328
 Coeff:                 0.27070     0.30552     0.18297     0.10986     0.06810     0.04224
 

 Symmetry turned off. Reference energy:        -76.062181920731

 All pairs explicitly correlated. Number of r12-pairs:           10

 Excluding core orbitals from MO domains
 
 AO(A)-basis ORBITAL           loaded. Number of functions:      89
 RI(R)-basis CC-PVTZ-F12/OPTRI loaded. Number of functions:     157
 DF-basis AUG-CC-PVTZ/JKFIT    loaded. Number of functions:     196

 Screening thresholds:   THRAO=  1.00D-10  THRMO=  1.00D-09  THRPROD=  1.00D-09
                         THRSW=  1.00D-05  THROV=  1.00D-12  THRAOF12=   1.00D-08

 CPU time for Fock operators                      1.07 sec
 
 Construction of ABS:
 Smallest eigenvalue of S          7.92E-04  (threshold= 1.00E-08)
 Ratio eigmin/eigmax               1.33E-04  (threshold= 1.00E-09)
 Smallest eigenvalue of S kept     7.92E-04  (threshold= 7.92E-04, 0 functions deleted, 157 kept)
 
 Construction of CABS:
 Smallest eigenvalue of S          2.00E-06  (threshold= 1.00E-08)
 Ratio eigmin/eigmax               2.00E-06  (threshold= 1.00E-09)
 Smallest eigenvalue of S kept     2.00E-06  (threshold= 2.00E-06, 0 functions deleted, 157 kept)
 
 CPU time for CABS singles                        0.01 sec

 CABS-singles contribution of  -0.00097990 patched into reference energy.
 New reference energy         -76.06316182
 
 AO(A)-basis ORBITAL           loaded. Number of functions:      89
 RI(R)-basis CC-PVTZ-F12/OPTRI loaded. Number of functions:     157
 DF-basis AUG-CC-PVTZ/MP2FIT   loaded. Number of functions:     198

 Screening thresholds:   THRAO=  1.00D-10  THRMO=  1.00D-09  THRPROD=  1.00D-09
                         THRSW=  1.00D-05  THROV=  1.00D-12  THRAOF12=   1.00D-08

 CPU time for 3-index integral evaluation         0.57 sec
 CPU time for first  half transformation          0.05 sec ( 3527.2 MFLOP/sec)
 CPU time for second half transformation          0.01 sec (  493.4 MFLOP/sec)
 CPU time for fitting                             0.01 sec ( 8185.8 MFLOP/sec)
 CPU time for assembly                            0.03 sec (17837.5 MFLOP/sec)
 CPU time for tranop_f12                          0.02 sec (32596.5 MFLOP/sec)
 CPU time for f12 integrals (total)               1.59 sec, Elapsed time:      1.65 sec
 CPU time for f12 matrices (total)                0.01 sec, Elapsed time:      0.01 sec

 Diagonal F12 approximation with fixed coefficients:  TSING= 0.500,  TTRIP= 0.250 (scaled by -1/beta)

 DF-MP2-F12 energy corrections:
 ==============================
 Approx.                                    Singlet             Triplet             Total
 DF-MP2-F12/3*C(DX,FIX)                -0.025166054642     -0.003006698775     -0.028172753417
 DF-MP2-F12/3*C(FIX)                   -0.023392506462     -0.002721357504     -0.026113863966
 DF-MP2-F12/3C(FIX)                    -0.023316015161     -0.002817290314     -0.026133305475

 DF-MP2-F12 correlation energies:
 ================================
 Approx.                                    Singlet             Triplet             Ecorr            Total Energy
 DF-MP2                                -0.174872364396     -0.099759966094     -0.274632330490    -76.337794147357
 DF-MP2-F12/3*C(DX,FIX)                -0.200038419038     -0.102766664869     -0.302805083907    -76.365966900774
 DF-MP2-F12/3*C(FIX)                   -0.198264870858     -0.102481323598     -0.300746194456    -76.363908011323
 DF-MP2-F12/3C(FIX)                    -0.198188379557     -0.102577256408     -0.300765635965    -76.363927452833

 SCS-DF-MP2 energies (F_SING= 1.20000  F_TRIP= 0.62222  F_PARALLEL= 0.33333):
 ============================================================================
 SCS-DF-MP2                            -0.271919705067    -76.335081521934
 SCS-DF-MP2-F12/3*C(DX,FIX)            -0.303989805431    -76.367151622298
 SCS-DF-MP2-F12/3*C(FIX)               -0.301684001935    -76.364845818802
 SCS-DF-MP2-F12/3C(FIX)                -0.301651903900    -76.364813720768

 Symmetry restored.
 Symmetry transformation completed.

 Number of N-1 electron functions:               4
 Number of N-2 electron functions:              10
 Number of singly external CSFs:               198
 Number of doubly external CSFs:             29292
 Total number of CSFs:                       29491

 Length of J-op  integral file:               8.97 MB
 Length of K-op  integral file:              13.62 MB
 Length of 3-ext integral record:             0.00 MB

 Memory could be reduced to 2.37 Mwords without degradation in triples

 Integral transformation finished. Total CPU:   0.08 sec, npass=  1  Memory used:   0.62 MW

 Reference energy:                    -76.06316182

 Adding F12 terms to K(Cij), methodcc=6,  factor= 1.0

 ITER.      SQ.NORM     CORR.ENERGY   TOTAL ENERGY   ENERGY CHANGE        DEN1      VAR(S)    VAR(P)  DIIS     TIME  TIME/IT
   1      1.06260685    -0.27477814   -76.33793995    -0.00010303     0.00589313  0.76D-03  0.10D-02  1  1     3.00     0.07
   2      1.06599749    -0.27451806   -76.33767988     0.00026007    -0.00467864  0.14D-04  0.11D-03  2  2     3.07     0.07
   3      1.06721128    -0.27465237   -76.33781418    -0.00013430    -0.00081968  0.91D-05  0.72D-05  3  3     3.13     0.07
   4      1.06777012    -0.27467465   -76.33783646    -0.00002228    -0.00036462  0.44D-06  0.57D-06  4  4     3.18     0.08
   5      1.06786469    -0.27467305   -76.33783487     0.00000159    -0.00002081  0.13D-06  0.35D-07  5  5     3.26     0.08
   6      1.06789009    -0.27467172   -76.33783353     0.00000133    -0.00000423  0.11D-07  0.35D-08  6  6     3.32     0.08
   7      1.06789657    -0.27467133   -76.33783314     0.00000039    -0.00000147  0.97D-09  0.27D-09  6  1     3.38     0.08
   8      1.06789806    -0.27467138   -76.33783320    -0.00000006    -0.00000001  0.75D-10  0.30D-10  6  2     3.46     0.08

 Norm of t1 vector:      0.03626110      S-energy:    -0.00000012      T1 diagnostic:  0.00906528
                                                                       D1 diagnostic:  0.01821114

 Adding energy correction from Wij-K(Fij), methodcc=6  factor= 1.0
 
  CCSD correlation energy              -0.274671384464
  MP2-F12 correction (uncoupled)       -0.025008155520
  C*T doubles correction               -0.000842316976
  f12b correction                       0.004281026097


 Total CPU time for triples:      0.40 sec


 RESULTS
 =======

  Reference energy                    -76.062181920731
  F12 singles correction               -0.000979896136

 F12 singles corrections added to reference energy

  New reference energy                -76.063161816867

  F12a singlet correction              -0.023139452655
  F12a triplet correction              -0.002711019842
  F12a total correction                -0.025850472497

 F12a corrections for ansatz F12/3C(FIX) added to CCSD energy
 
  CCSD-F12a singlet pair energy        -0.209641258927
  CCSD-F12a triplet pair energy        -0.090880477700
  CCSD-F12a correlation energy         -0.300521856961

  Triples (T) contribution             -0.008911067777
  Total correlation energy             -0.309432924738

  CCSD-F12a total energy              -76.363683673828
  CCSD[T]-F12a energy                 -76.372902525902
  CCSD-T-F12a energy                  -76.372459533530
 !CCSD(T)-F12a total energy           -76.372594741605

 F12b corrections for ansatz F12/3C(FIX) added to CCSD(T)-F12a energy

  CCSD-F12b singlet pair energy        -0.205671045865
  CCSD-F12b triplet pair energy        -0.090569664664
  CCSD-F12b correlation energy         -0.296240830863

  Triples (T) contribution             -0.008911067777
  Total correlation energy             -0.305151898640

  CCSD-F12b total energy              -76.359402647731
  CCSD[T]-F12b energy                 -76.368621499804
  CCSD-T-F12b energy                  -76.368178507433
 !CCSD(T)-F12b total energy           -76.368313715508

 Timing summary (sec):

 STEP                 CPU(USER)    SYS     CPU(TOT)    WALL
 Transformation          0.08      0.01      0.09      0.10
 CCSD iterations         0.56      0.13      0.69      0.68
 Triples                 0.40      0.02      0.42      0.42
 MP2-F12                 2.83      0.10      2.93      2.93
 F12b energy             0.05      0.00      0.05      0.06

 Program statistics:

 Available memory in ccsd:                49999786
 Min. memory needed in ccsd:                145972
 Max. memory used in ccsd:                  166319
 Max. memory used in cckext:                248663 ( 9 integral passes)



 **********************************************************************************************************************************
 DATASETS  * FILE   NREC   LENGTH (MB)   RECORD NAMES
              1      20       56.67       500      610      700      900      950      970     1000      129      960     1100   
                                          VAR    BASINP    GEOM    SYMINP    ZMAT    AOBASIS   BASIS     P2S    ABASIS      S 
                                         1400     1410     1200     1210     1080     1600     1650     1300     1700     1380   
                                           T        V       H0       H01     AOSYM     SMH    MOLCAS    ERIS     OPER     JKOP   

              2       6        2.97       700     1000      520     2100     7360     7350   
                                         GEOM     BASIS   MCVARS     RHF    F12ABS    EF12   

 PROGRAMS   *        TOTAL   CCSD(T)        HF       INT
 CPU TIMES  *         4.97      3.94      0.28      0.65
 REAL TIME  *         5.76 SEC
 DISK USED  *       125.48 MB      
 **********************************************************************************************************************************

 CCSD(T)-F12/cc-pVTZ-F12 energy=    -76.368313715508

     CCSD(T)-F12        HF-SCF  
    -76.36831372    -76.06218192
 **********************************************************************************************************************************
 Molpro calculation terminated
 Variable memory released
