
 Primary working directories    : /tmp/r2518/14767.maple
 Secondary working directories  : /tmp/r2518/14767.maple
 Wavefunction directory         : /ddn/home1/r2518/wfu/
 Main file repository           : /tmp/r2518/14767.maple/

 SHA1      : d5ffa45e93fdbca01ffc919aa182cfdae0147319
 NAME      : 2015.1.35
 ARCHNAME  : linux/x86_64
 FC        : /opt/intel/composer_xe_2015.1.133/bin/intel64/ifort
 BLASLIB   : -Wl,-_start-group /opt/intel/mkl/lib/intel64/libmkl_intel_ilp64.a /opt/intel/mkl/lib/intel64/libmkl_intel_thread.a /opt/intel/mkl/lib/intel64/libmkl_core.a -Wl,-_end-group
 id        : olemiss

 Nodes     nprocs
 cn059        1

 Using customized tuning parameters: mindgm=1; mindgv=20; mindgc=4; mindgr=1; noblas=0; minvec=7
 default implementation of scratch files=df  

 memory,50,m
 nocompress;
 geomtyp=xyz
 angstrom
 geometry={
 O,0.0,0.0,-0.0657441568
 H,0.0,0.7574590974000001,0.5217905143000001
 H,0.0,-0.7574590973999998,0.4717905143000001
 }
 basis=cc-pVTZ-F12
 set,charge=0
 set,spin=0
 hf
 {CCSD(T)-F12}

 Variables initialized (889), CPU time= 0.00 sec
 Commands  initialized (702), CPU time= 0.00 sec, 572 directives.
 Default parameters read. Elapsed time= 0.06 sec

 Checking input...
 Passed
1


                                         ***  PROGRAM SYSTEM MOLPRO  ***
                                       Copyright, TTI GmbH Stuttgart, 2015
                                    Version 2015.1 linked Jul  9 2018 13:16:40


 **********************************************************************************************************************************
 LABEL *                                                                                 
  64 bit serial version                                                                  DATE: 24-Aug-19          TIME: 16:51:24  
 **********************************************************************************************************************************

 SHA1:             d5ffa45e93fdbca01ffc919aa182cfdae0147319
 **********************************************************************************************************************************

 Input parameters for SORTINT:

 COMPRESS =    0.000000
 C_FINAL  =    1.000000
 DEBUG    =   -1.000000
 C_SORT1  =    0.000000
 C_SEWARD =    0.000000
 THRESH   =    0.000000
 IO       =  molpro                                                          
 SPRI     =    0.000000
 SETTING GEOMTYP        =    XYZ
 ZUNIT=ANG
 

 Variable memory set to   50000000 words,  buffer space   230000 words

 SETTING BASIS          =    CC-PVTZ-F12
 SETTING CHARGE         =     0.00000000D+00                                  
 SETTING SPIN           =     0.00000000D+00                                  


 Recomputing integrals since basis changed


 Using spherical harmonics

 Library entry O      S cc-pVTZ-F12          selected for orbital group  1
 Library entry O      P cc-pVTZ-F12          selected for orbital group  1
 Library entry O      D cc-pVTZ-F12          selected for orbital group  1
 Library entry O      F cc-pVTZ-F12          selected for orbital group  1
 Library entry H      S cc-pVTZ-F12          selected for orbital group  2
 Library entry H      P cc-pVTZ-F12          selected for orbital group  2
 Library entry H      D cc-pVTZ-F12          selected for orbital group  2


 PROGRAM * SEWARD (Integral evaluation for generally contracted gaussian basis sets)     Author: Roland Lindh, 1990

 Geometry written to block  1 of record 700


 Point group  Cs  



 ATOMIC COORDINATES

 NR  ATOM    CHARGE       X              Y              Z

   1  O       8.00    0.000000000    0.000000000   -0.124238451
   2  H       1.00    0.000000000    1.431390245    0.986041166
   3  H       1.00    0.000000000   -1.431390245    0.891554860

 Bond lengths in Bohr (Angstrom)

 1-2  1.811518385  1-3  1.755196309
     ( 0.958614247)     ( 0.928809887)

 Bond angles

  2-1-3  106.83890215

 NUCLEAR CHARGE:                   10
 NUMBER OF PRIMITIVE AOS:         114
 NUMBER OF SYMMETRY AOS:          103
 NUMBER OF CONTRACTIONS:           89   (  61A'  +  28A"  )
 NUMBER OF CORE ORBITALS:           1   (   1A'  +   0A"  )
 NUMBER OF VALENCE ORBITALS:        6   (   5A'  +   1A"  )


 NUCLEAR REPULSION ENERGY    9.32320020

 Eigenvalues of metric

         1 0.202E-03 0.429E-03 0.568E-03 0.706E-03 0.783E-03 0.156E-02 0.197E-02 0.211E-02
         2 0.689E-03 0.749E-02 0.959E-02 0.423E-01 0.835E-01 0.893E-01 0.120E+00 0.186E+00


 Contracted 2-electron integrals neglected if value below      1.0D-11

        3665601. INT CPU time for 3-index integral evaluation         0.58 sec
 CPU time for first  half transformation          0.02 sec ( 8818.0 MFLOP/sec)
 CPU time for tilde quantities                    0.01 sec (10820.3 MFLOP/sec)
 CPU time for assembly                            0.03 sec (17837.5 MFLOP/sec)
 CPU time for tranop_f12                          0.04 sec (16298.2 MFLOP/sec)
 CPU time for f12 integrals (total)               1.55 sec, Elapsed time:      1.58 sec
 CPU time for f12 matrices (total)                0.02 sec, Elapsed time:      0.06 sec

 Diagonal F12 approximation with fixed coefficients:  TSING= 0.500,  TTRIP= 0.250 (scaled by -1/beta)

 DF-MP2-F12 energy corrections:
 ==============================
 Approx.                                    Singlet             Triplet             Total
 DF-MP2-F12/3*C(DX,FIX)                -0.025360427827     -0.003037905620     -0.028398333447
 DF-MP2-F12/3*C(FIX)                   -0.023538504155     -0.002742221940     -0.026280726095
 DF-MP2-F12/3C(FIX)                    -0.023461684354     -0.002838520980     -0.026300205334

 DF-MP2-F12 correlation energies:
 ================================
 Approx.                                    Singlet             Triplet             Ecorr            Total Energy
 DF-MP2                                -0.172982284983     -0.098757544345     -0.271739829328    -76.338157137799
 DF-MP2-F12/3*C(DX,FIX)                -0.198342712811     -0.101795449965     -0.300138162776    -76.366555471247
 DF-MP2-F12/3*C(FIX)                   -0.196520789138     -0.101499766285     -0.298020555423    -76.364437863894
 DF-MP2-F12/3C(FIX)                    -0.196443969337     -0.101596065325     -0.298040034662    -76.364457343133

 SCS-DF-MP2 energies (F_SING= 1.20000  F_TRIP= 0.62222  F_PARALLEL= 0.33333):
 ============================================================================
 SCS-DF-MP2                            -0.269027880683    -76.335445189155
 SCS-DF-MP2-F12/3*C(DX,FIX)            -0.301350646462    -76.367767954933
 SCS-DF-MP2-F12/3*C(FIX)               -0.298980357098    -76.365397665570
 SCS-DF-MP2-F12/3C(FIX)                -0.298948092740    -76.365365401211

 Symmetry restored.
 Symmetry transformation completed.

 Number of N-1 electron functions:               4
 Number of N-2 electron functions:              10
 Number of singly external CSFs:               198
 Number of doubly external CSFs:             29292
 Total number of CSFs:                       29491

 Length of J-op  integral file:               8.97 MB
 Length of K-op  integral file:              13.62 MB
 Length of 3-ext integral record:             0.00 MB

 Memory could be reduced to 2.37 Mwords without degradation in triples

 Integral transformation finished. Total CPU:   0.07 sec, npass=  1  Memory used:   0.62 MW

 Reference energy:                    -76.06641731

 Adding F12 terms to K(Cij), methodcc=6,  factor= 1.0

 ITER.      SQ.NORM     CORR.ENERGY   TOTAL ENERGY   ENERGY CHANGE        DEN1      VAR(S)    VAR(P)  DIIS     TIME  TIME/IT
   1      1.06046456    -0.27225407   -76.33867138    -0.00047187     0.00510700  0.68D-03  0.91D-03  1  1     2.96     0.07
   2      1.06351287    -0.27198299   -76.33840030     0.00027108    -0.00436197  0.11D-04  0.93D-04  2  2     3.03     0.07
   3      1.06455217    -0.27209889   -76.33851619    -0.00011590    -0.00073961  0.78D-05  0.58D-05  3  3     3.10     0.07
   4      1.06501751    -0.27211875   -76.33853605    -0.00001986    -0.00031711  0.38D-06  0.46D-06  4  4     3.17     0.07
 CPU time for Fock operators                      1.03 sec
 
 Construction of ABS:
 Smallest eigenvalue of S          7.24E-04  (threshold= 1.00E-08)
 Ratio eigmin/eigmax               1.20E-04  (threshold= 1.00E-09)
 Smallest eigenvalue of S kept     7.24E-04  (threshold= 7.24E-04, 0 functions deleted, 157 kept)
 
 Construction of CABS:
 Smallest eigenvalue of S          1.71E-06  (threshold= 1.00E-08)
 Ratio eigmin/eigmax               1.71E-06  (threshold= 1.00E-09)
 Smallest eigenvalue of S kept     1.71E-06  (threshold= 1.71E-06, 0 functions deleted, 157 kept)
 
 CPU time for CABS singles                        0.01 sec

 CABS-singles contribution of  -0.00103645 patched into reference energy.
 New reference energy         -76.06641731
 
 AO(A)-basis ORBITAL           loaded. Number of functions:      89
 RI(R)-basis CC-PVTZ-F12/OPTRI loaded. Number of functions:     157
 DF-basis AUG-CC-PVTZ/MP2FIT   loaded. Number of functions:     198

 Screening thresholds:   THRAO
 Total CPU time for triples:      0.31 sec


 RESULTS
 =======

  Reference energy                    -76.065380861445
  F12 singles CPU time for 3-index integral evaluation         0.58 sec
 CPU time for first  half transformation          0.04 sec ( 4409.0 MFLOP/sec)
 CPU time for fitting                             0.01 sec ( 8185.8 MFLOP/sec)
 CPU time for assembly                            0.02 sec (26756.3 MFLOP/sec)
 CPU time for tranop_f12                          0.03 sec (21731.0 MFLOP/sec)
 CPU time for f12 integrals (total)               1.51 sec, Elapsed time:      1.56 sec
 CPU time for f12 matrices (total)                0.01 sec, Elapsed time:      0.02 sec

 Diagonal F12 approximation with fixed coefficients:  TSING= 0.500,  TTRIP= 0.250 (scaled by -1/beta)

 DF-MP2-F12 energy corrections:
 ==============================
 Approx.                                    Singlet             Triplet             Total
 DF-MP2-F12/3*C(DX,FIX)                -0.025360427827     -0.003037905620     -0.028398333447
 DF-MP2-F12/3*C(FIX)                   -0.023538504155     -0.002742221940     -0.026280726095
 DF-MP2-F12/3C(FIX)                    -0.023461684354     -0.002838520980     -0.026300205334

 DF-MP2-F12 correlation energies:
 ================================
 Approx.                                    Singlet             Triplet             Ecorr            Total Energy
 DF-MP2                                -0.172982284983     -0.098757544345     -0.271739829328    -76.338157137799
 DF-MP2-F12/3*C(DX,FIX)                -0.198342712811     -0.101795449965     -0.300138162776    -76.366555471247
 DF-MP2-F12/3*C(FIX)                   -0.196520789138     -0.101499766285     -0.298020555423    -76.364437863894
 DF-MP2-F12/3C(FIX)                    -0.196443969337     -0.101596065325     -0.298040034662    -76.364457343133

 SCS-DF-MP2 energies (F_SING= 1.20000  F_TRIP= 0.62222  F_PARALLEL= 0.33333):
 ============================================================================
 SCS-DF-MP2                            -0.269027880683    -76.335445189155
 SCS-DF-MP2-F12/3*C(DX,FIX)            -0.301350646462    -76.367767954933
 SCS-DF-MP2-F12/3*C(FIX)               -0.298980357098    -76.365397665570
 SCS-DF-MP2-F12/3C(FIX)                -0.298948092740    -76.365365401211

 Symmetry restored.
 Symmetry transformation completed.

 Number of N-1 electron functions:               4
 Number of N-2 electron functions:              10
 Number of singly external CSFs:               198
 Number of doubly external CSFs:             29292
 Total number of CSFs:                       29491

 Length of J-op  integral file:               8.97 MB
 Length of K-op  integral file:              13.62 MB
 Length of 3-ext integral record:             0.00 MB

 Memory could be reduced to 2.37 Mwords without degradation in triples

 Integral transformation finished. Total CPU:   0.06 sec, npass=  1  Memory used:   0.62 MW

 Reference energy:                    -76.06641731

 Adding F12 terms to K(Cij), methodcc=6,  factor= 1.0

 ITER.      SQ.NORM     CORR.ENERGY   TOTAL ENERGY   ENERGY CHANGE        DEN1      VAR(S)    VAR(P)  DIIS     TIME  TIME/IT
   1      1.06046456    -0.27225407   -76.33867138    -0.00047187     0.00510700  0.68D-03  0.91D-03  1  1     2.86     0.07
   2      1.06351287    -0.27198299   -76.33840030     0.00027108    -0.00436197  0.11D-04  0.93D-04  2  2     2.91     0.07
   3      1.06455217    -0.27209889   -76.33851619    -0.00011590    -0.00073961  0.78D-05  0.58D-05  3  3     2.97     0.07
   4      1.06501751    -0.27211875   -76.33853605    -0.00001986    -0.00031711  0.38D-06  0.46D-06  4  4     3.03     0.08
   5      1.06509675    -0.27211722   -76.33853453     0.00000153    -0.00001710  0.11D-06  0.27D-07  5  5     3.11     0.08
   6      1.06511812    -0.27211603   -76.33853334     0.00000118    -0.00000353  0.90D-08  0.27D-08  6  6     3.17     0.08
   7      1.06512366    -0.27211569   -76.33853300     0.00000034    -0.00000128  0.75D-09  0.21D-09  6  1     3.23     0.08
   8      1.06512493    -0.27211575   -76.33853305    -0.00000006    -0.00000000  0.56D-10  0.22D-10  6  2     3.29     0.08

 Norm of t1 vector:      0.03384943      S-energy:    -0.00000009      T1 diagnostic:  0.00846236
                                                                       D1 diagnostic:  0.01680537

 Adding energy correction from Wij-K(Fij), methodcc=6  factor= 1.0
 
  CCSD correlation energy              -0.272115745836
  MP2-F12 correction (uncoupled)       -0.025182095608
  C*T doubles correction               -0.000841744859
  f12b correction                       0.004266419955


 Total CPU time for triples:      0.30 sec


 RESULTS
 =======

  Reference energy                    -76.065380861445
  F12 singles correction               -0.001036447026

 F12 singles corrections added to reference energy

  New reference energy                -76.066417308471

  F12a singlet correction              -0.023291186723
  F12a triplet correction              -0.002732653745
  F12a total correction                -0.026023840467

 F12a corrections for ansatz F12/3C(FIX) added to CCSD energy
 
  CCSD-F12a singlet pair energy        -0.207533553855
  CCSD-F12a triplet pair energy        -0.090605938300
  CCSD-F12a correlation energy         -0.298139586303

  Triples (T) contribution             -0.008555620917
  Total correlation energy             -0.306695207220

  CCSD-F12a total energy              -76.364556894774
  CCSD[T]-F12a energy                 -76.373389959823
  CCSD-T-F12a energy                  -76.372992638050
 !CCSD(T)-F12a total energy           -76.373112515691

 F12b corrections for ansatz F12/3C(FIX) added to CCSD(T)-F12a energy

  CCSD-F12b singlet pair energy        -0.203579416791
  CCSD-F12b triplet pair energy        -0.090293655410
  CCSD-F12b correlation energy         -0.293873166348

  Triples (T) contribution             -0.008555620917
  Total correlation energy             -0.302428787265

  CCSD-F12b total energy              -76.360290474819
  CCSD[T]-F12b energy                 -76.369123539868
  CCSD-T-F12b energy                  -76.368726218095
 !CCSD(T)-F12b total energy           -76.368846095736

 Timing summary (sec):

 STEP                 CPU(USER)    SYS     CPU(TOT)    WALL
 Transformation          0.06      0.04      0.10      0.09
 CCSD iterations         0.53      0.11      0.64      0.68
 Triples                 0.30      0.01      0.31      0.31
 MP2-F12                 2.70      0.08      2.78      2.83
 F12b energy             0.06      0.01      0.07      0.06

 Program statistics:

 Available memory in ccsd:                49999786
 Min. memory needed in ccsd:                145972
 Max. memory used in ccsd:                  166319
 Max. memory used in cckext:                248663 ( 9 integral passes)



 **********************************************************************************************************************************
 DATASETS  * FILE   NREC   LENGTH (MB)   RECORD NAMES
              1      20       56.61       500      610      700      900      950      970     1000      129      960     1100   
                                          VAR    BASINP    GEOM    SYMINP    ZMAT    AOBASIS   BASIS     P2S    ABASIS      S 
                                         1400     1410     1200     1210     1080     1600     1650     1300     1700     1380   
                                           T        V       H0       H01     AOSYM     SMH    MOLCAS    ERIS     OPER     JKOP   

              2       6        2.97       700     1000      520     2100     7360     7350   
                                         GEOM     BASIS   MCVARS     RHF    F12ABS    EF12   

 PROGRAMS   *        TOTAL   CCSD(T)        HF       INT
 CPU TIMES  *         4.68      3.68      0.28      0.62
 REAL TIME  *         5.58 SEC
 DISK USED  *       125.35 MB      
 **********************************************************************************************************************************

 CCSD(T)-F12/cc-pVTZ-F12 energy=    -76.368846095736

     CCSD(T)-F12        HF-SCF  
    -76.36884610    -76.06538086
 **********************************************************************************************************************************
 Molpro calculation terminated
 Variable memory released
