
 Primary working directories    : /tmp/r2518/14705.maple
 Secondary working directories  : /tmp/r2518/14705.maple
 Wavefunction directory         : /ddn/home1/r2518/wfu/
 Main file repository           : /tmp/r2518/14705.maple/

 SHA1      : d5ffa45e93fdbca01ffc919aa182cfdae0147319
 NAME      : 2015.1.35
 ARCHNAME  : linux/x86_64
 FC        : /opt/intel/composer_xe_2015.1.133/bin/intel64/ifort
 BLASLIB   : -Wl,-_start-group /opt/intel/mkl/lib/intel64/libmkl_intel_ilp64.a /opt/intel/mkl/lib/intel64/libmkl_intel_thread.a /opt/intel/mkl/lib/intel64/libmkl_core.a -Wl,-_end-group
 id        : olemiss

 Nodes     nprocs
 cn059        1

 Using customized tuning parameters: mindgm=1; mindgv=20; mindgc=4; mindgr=1; noblas=0; minvec=7
 default implementation of scratch files=df  

 memory,50,m
 nocompress;
 geomtyp=xyz
 angstrom
 geometry={
 O,0.0,0.0,-0.0657441568
 H,0.0,0.7074590974,0.5217905143
 H,0.0,-0.7574590974,0.5217905143
 }
 basis=cc-pVTZ-F12
 set,charge=0
 set,spin=0
 hf
 {CCSD(T)-F12}

 Variables initialized (889), CPU time= 0.01 sec
 Commands  initialized (702), CPU time= 0.01 sec, 572 directives.
 Default parameters read. Elapsed time= 0.06 sec

 Checking input...
 Passed
1


                                         ***  PROGRAM SYSTEM MOLPRO  ***
                                       Copyright, TTI GmbH Stuttgart, 2015
                                    Version 2015.1 linked Jul  9 2018 13:16:40


 **********************************************************************************************************************************
 LABEL *                                                                                 
  64 bit serial version                                                                  DATE: 24-Aug-19          TIME: 16:50:37  
 **********************************************************************************************************************************

 SHA1:             d5ffa45e93fdbca01ffc919aa182cfdae0147319
 **********************************************************************************************************************************

 Input parameters for SORTINT:

 COMPRESS =    0.000000
 C_FINAL  =    1.000000
 DEBUG    =   -1.000000
 C_SORT1  =    0.000000
 C_SEWARD =    0.000000
 THRESH   =    0.000000
 IO       =  molpro                                                          
 SPRI     =    0.000000
 SETTING GEOMTYP        =    XYZ
 ZUNIT=ANG
 

 Variable memory set to   50000000 words,  buffer space   230000 words

 SETTING BASIS          =    CC-PVTZ-F12
 SETTING CHARGE         =     0.00000000D+00                                  
 SETTING SPIN           =     0.00000000D+00                                  


 Recomputing integrals since basis changed


 Using spherical harmonics

 Library entry O      S cc-pVTZ-F12          selected for orbital group  1
 Library entry O      P cc-pVTZ-F12          selected for orbital group  1
 Library entry O      D cc-pVTZ-F12          selected for orbital group  1
 Library entry O      F cc-pVTZ-F12          selected for orbital group  1
 Library entry H      S cc-pVTZ-F12          selected for orbital group  2
 Library entry H      P cc-pVTZ-F12          selected for orbital group  2
 Library entry H      D cc-pVTZ-F12          selected for orbital group  2


 PROGRAM * SEWARD (Integral evaluation for generally contracted gaussian basis sets)     Author: Roland Lindh, 1990

 Geometry written to block  1 of record 700


 Point group  Cs  



 ATOMIC COORDINATES

 NR  ATOM    CHARGE       X              Y              Z

   1  O       8.00    0.000000000    0.000000000   -0.124238451
   2  H       1.00    0.000000000    1.336903938    0.986041166
   3  H       1.00    0.000000000   -1.431390245    0.986041166

 Bond lengths in Bohr (Angstrom)

 1-2  1.737824205  1-3  1.811518385
     ( 0.919616966)     ( 0.958614247)

 Bond angles

  2-1-3  102.49136463

 NUCLEAR CHARGE:                   10
 NUMBER OF PRIMITIVE AOS:         114
 NUMBER OF SYMMETRY AOS:          103
 NUMBER OF CONTRACTIONS:           89   (  61A'  +  28A"  )
 NUMBER OF CORE ORBITALS:           1   (   1A'  +   0A"  )
 NUMBER OF VALENCE ORBITALS:        6   (   5A'  +   1A"  )


 NUCLEAR REPULSION ENERGY    9.38087568

 Eigenvalues of metric

         1 0.199E-03 0.435E-03 0.567E-03 0.705E-03 0.778E-03 0.153E-02 0.196E-02 0.204E-02
         2 0.688E-03 0.730E-02 0.943E-02 0.432E-01 0.832E-01 0.875E-01 0.124E+00 0.184E+00


 Contracted 2-electron integrals neglected if value below      1.0D-11

        3628597. INTEGRALS WRITTEN OUT IN     887 BLOCKS ON RECORD 1290 OF FILE 1


 NUMBER OF SORTED TWO-ELECTRON INTEGRALS:    4174745.     BUFFER LENGTH:  32768
 NUMBER OF SEGMENTS:   1  SEGMENT LENGTH:    4174745      RECORD LENGTH: 524288

 Memory used in sort:       4.73 MW

 SORT1 READ     3628597. AND WROTE     3690321. INTEGRALS IN     11 RECORDS. CPU TIME:     0.14 SEC, REAL TIME:     0.16 SEC
 SORT2 READ     3690321. AND WROTE     4174745. INTEGRALS IN      1 RECORDS. CPU TIME:     0.11 SEC, REAL TIME:     0.15 SEC

 FILE SIZES:   FILE 1:    78.3 MBYTE,  FILE 4:    46.2 MBYTE,   TOTAL:    124.4 MBYTE

 OPERATOR DM      FOR CENTER  0  COORDINATES:    0.000000    0.000000    0.000000


 **********************************************************************************************************************************
 DATASETS  * FILE   NREC   LENGTH (MB)   RECORD NAMES
              1      19       50.78       500      610      700      900      950      970     1000      129      960     1100   
                                          VAR    BASINP    GEOM    SYMINP    ZMAT    AOBASIS   BASIS     P2S    ABASIS      S 
                                         1400     1410     1200     1210     1080     1600     1650     1300     1700   
                                           T        V       H0       H01     AOSYM     SMH    MOLCAS    ERIS     OPER   

 PROGRAMS   *        TOTAL       INT
 CPU TIMES  *         0.76      0.66
 REAL TIME  *         1.25 SEC
 DISK USED  *       124.76 MB      
 **********************************************************************************************************************************


 PROGRAM * RHF-SCF (CLOSED SHELL)       Authors: W. Meyer, H.-J. Werner


 NUMBER OF ELECTRONS:       5+    5-
 CONVERGENCE THRESHOLDS:    1.00E-05 (Density)    1.00E-07 (Energy)
 MAX. NUMBER OF ITERATIONS:       60
 INTERPOLATION TYPE:            DIIS
 INTERPOLATION STEPS:              2 (START)      1 (STEP)
 LEVEL SHIFTS:                  0.00 (CLOSED)  0.00 (OPEN) 



 Orbital guess generated from atomic densities. Full valence occupancy:    6   1

 Molecular orbital dump at record        2100.2

 Initial occupancy:   4   1

 ITERATION    DDIFF          GRAD             ENERGY        2-EL.EN.            DIPOLE MOMENTS         DIIS   ORB.
    1      0.000D+00      0.000D+00       -76.02648135     77.939088    0.00000   -0.05985    1.13116    0    start
    2      0.000D+00      0.137D-01       -76.05380080     74.398467    0.00000   -0.02341    0.68227    1    diag
    3      0.150D-01      0.838D-02       -76.06444471     75.943445    0.00000   -0.02992    0.79371    2    diag
    4      0.500D-02      0.795D-03       -76.06462273     75.854181    0.00000   -0.02765    0.79122    3    diag
    5      0.734D-03      0.210D-03       -76.06463969     75.867806    0.00000   -0.02676    0.79037    4    diag
    6      0.250D-03      0.393D-04       -76.06464063     75.867001    0.00000   -0.02649    0.79026    5    diag
    7      0.692D-04      0.755D-05       -76.06464068     75.867127    0.00000   -0.02641    0.79020    6    diag
    8      0.140D-04      0.151D-05       -76.06464068     75.867120    0.00000   -0.02640    0.79017    7    diag
    9      0.260D-05      0.181D-06       -76.06464068     75.867108    0.00000   -0.02640    0.79017    0    orth

 Final occupancy:   4   1

 !RHF STATE 1.1 Energy                -76.064640678598
 Nuclear energy                         9.38087568
 One-electron energy                 -123.37907027
 Two-electron energy                   37.93355391
 Virial quotient                       -0.99986697
 !RHF STATE 1.1 Dipole moment           0.00000000    -0.02640033     0.79016800
 Dipole moment /Debye                   0.00000000    -0.06709855     2.00827519

 Orbital energies:

         1.1          2.1          3.1          4.1          5.1          6.1
    -20.562414    -1.364528    -0.723993    -0.592384     0.100181     0.120817

         1.2          2.2          3.2
     -0.512662     0.144963     0.483405

 HOMO      1.2    -0.512662 =     -13.9502eV
 LUMO      5.1     0.100181 =       2.7261eV
 LUMO-HOMO         0.612843 =      16.6763eV


 **********************************************************************************************************************************
 DATASETS  * FILE   NREC   LENGTH (MB)   RECORD NAMES
              1      19       50.78       500      610      700      900      950      970     1000      129      960     1100   
                                          VAR    BASINP    GEOM    SYMINP    ZMAT    AOBASIS   BASIS     P2S    ABASIS      S 
                                         1400     1410     1200     1210     1080     1600     1650     1300     1700   
                                           T        V       H0       H01     AOSYM     SMH    MOLCAS    ERIS     OPER   

              2       4        2.88       700     1000      520     2100   
                                         GEOM     BASIS   MCVARS     RHF  

 PROGRAMS   *        TOTAL        HF       INT
 CPU TIMES  *         1.04      0.28      0.66
 REAL TIME  *         1.62 SEC
 DISK USED  *       124.76 MB      
 **********************************************************************************************************************************


 PROGRAM * CCSD (Closed-shell coupled cluster)     Authors: C. Hampel, H.-J. Werner, 1991, M. Deegan, P.J. Knowles, 1992

                                  CCSD-F12 implementation by  H.-J. Werner, 2007

                   Density fitting integral evaluation by F.R. Manby, 2003,2007, G. Knizia, 2010

 Basis set AUG-CC-PVTZ/JKFIT generated.  Number of basis functions:   196 
 Basis set CC-PVTZ-F12/OPTRI generated.  Number of basis functions:   157 
 Basis set AUG-CC-PVTZ/MP2FIT generated. Number of basis functions:   198 

 Convergence thresholds:  THRVAR = 1.00D-08  THRDEN = 1.00D-06

 CCSD(T)     terms to be evaluated (factor= 1.000)


 Number of core orbitals:           1 (   1   0 )
 Number of closed-shell orbitals:   4 (   3   1 )
 Number of external orbitals:      84 (  57  27 )

 Molecular orbitals read from record     2100.2  Type=RHF/CANONICAL (state 1.1)

 MP2-F12 correlation treatment (H.-J. Werner, 2006)
 ==================================================

 Using MP2-F12 with ansatz 3C(FIX)

 Using projected zeroth-order Hamiltonian (+Z)

 FOCKRIB=T FOCKRIC=T FOCKRIP=T CABSP=T CABSA=T CABSK=T CABSF=T GBC=F EBC=F DMAT=T NOFIK=T NOPAO=1 SOLVE=-1  USEPAO=0
 EXCH_A= T EXCH_B= F EXCH_C= F EXCH_P= F
 
 Geminal basis:    OPTFULL  GEM_TYPE=SLATER  BETA=1.0  NGEM=6

 Optimizing Gaussian exponents for each gem_beta

 Geminal optimization for beta= 1.0000
 Weight function:   m=0, omega= 1.4646

 Augmented Hessian optimization of geminal fit. Trust ratio= 0.40000
 Convergence reached after   2 iterations. Final gradient= 8.41D-16, Step= 4.29D-06, Delta= 1.28D-09
 
 Alpha:                 0.19532     0.81920     2.85917     9.50073    35.69989   197.79328
 Coeff:                 0.27070     0.30552     0.18297     0.10986     0.06810     0.04224
 

 Symmetry turned off. Reference energy:        -76.064640678598

 All pairs explicitly correlated. Number of r12-pairs:           10

 Excluding core orbitals from MO domains
 
 AO(A)-basis ORBITAL           loaded. Number of functions:      89
 RI(R)-basis CC-PVTZ-F12/OPTRI loaded. Number of functions:     157
 DF-basis AUG-CC-PVTZ/JKFIT    loaded. Number of functions:     196

 Screening thresholds:   THRAO=  1.00D-10  THRMO=  1.00D-09  THRPROD=  1.00D-09
                         THRSW=  1.00D-05  THROV=  1.00D-12  THRAOF12=   1.00D-08

 CPU time for Fock operators                      1.06 sec
 
 Construction of ABS:
 Smallest eigenvalue of S          7.02E-04  (threshold= 1.00E-08)
 Ratio eigmin/eigmax               1.16E-04  (threshold= 1.00E-09)
 Smallest eigenvalue of S kept     7.02E-04  (threshold= 7.02E-04, 0 functions deleted, 157 kept)
 
 Construction of CABS:
 Smallest eigenvalue of S          1.64E-06  (threshold= 1.00E-08)
 Ratio eigmin/eigmax               1.64E-06  (threshold= 1.00E-09)
 Smallest eigenvalue of S kept     1.64E-06  (threshold= 1.64E-06, 0 functions deleted, 157 kept)
 
 CPU time for CABS singles                        0.01 sec

 CABS-singles contribution of  -0.00105056 patched into reference energy.
 New reference energy         -76.06569124
 
 AO(A)-basis ORBITAL           loaded. Number of functions:      89
 RI(R)-basis CC-PVTZ-F12/OPTRI loaded. Number of functions:     157
 DF-basis AUG-CC-PVTZ/MP2FIT   loaded. Number of functions:     198

 Screening thresholds:   THRAO=  1.00D-10  THRMO=  1.00D-09  THRPROD=  1.00D-09
                         THRSW=  1.00D-05  THROV=  1.00D-12  THRAOF12=   1.00D-08

 CPU time for 3-index integral evaluation         0.61 sec
 CPU time for first  half transformation          0.02 sec ( 8818.0 MFLOP/sec)
 CPU time for sorting                             0.01 sec
 CPU time for tranop_f12                          0.03 sec (21731.0 MFLOP/sec)
 CPU time for f12 integrals (total)               1.55 sec, Elapsed time:      1.60 sec
 CPU time for f12 matrices (total)                0.01 sec, Elapsed time:      0.01 sec

 Diagonal F12 approximation with fixed coefficients:  TSING= 0.500,  TTRIP= 0.250 (scaled by -1/beta)

 DF-MP2-F12 energy corrections:
 ==============================
 Approx.                                    Singlet             Triplet             Total
 DF-MP2-F12/3*C(DX,FIX)                -0.025376071095     -0.003044636576     -0.028420707672
 DF-MP2-F12/3*C(FIX)                   -0.023544250172     -0.002747978841     -0.026292229013
 DF-MP2-F12/3C(FIX)                    -0.023465421682     -0.002844281368     -0.026309703050

 DF-MP2-F12 correlation energies:
 ================================
 Approx.                                    Singlet             Triplet             Ecorr            Total Energy
 DF-MP2                                -0.172917166995     -0.098751064745     -0.271668231740    -76.337359466789
 DF-MP2-F12/3*C(DX,FIX)                -0.198293238090     -0.101795701322     -0.300088939412    -76.365780174460
 DF-MP2-F12/3*C(FIX)                   -0.196461417166     -0.101499043587     -0.297960460753    -76.363651695802
 DF-MP2-F12/3C(FIX)                    -0.196382588677     -0.101595346114     -0.297977934790    -76.363669169839

 SCS-DF-MP2 energies (F_SING= 1.20000  F_TRIP= 0.62222  F_PARALLEL= 0.33333):
 ============================================================================
 SCS-DF-MP2                            -0.268945707346    -76.334636942395
 SCS-DF-MP2-F12/3*C(DX,FIX)            -0.301291433197    -76.366982668246
 SCS-DF-MP2-F12/3*C(FIX)               -0.298908661053    -76.364599896102
 SCS-DF-MP2-F12/3C(FIX)                -0.298873988438    -76.364565223487

 Symmetry restored.
 Symmetry transformation completed.

 Number of N-1 electron functions:               4
 Number of N-2 electron functions:              10
 Number of singly external CSFs:               198
 Number of doubly external CSFs:             29292
 Total number of CSFs:                       29491

 Length of J-op  integral file:               8.97 MB
 Length of K-op  integral file:              13.62 MB
 Length of 3-ext integral record:             0.00 MB

 Memory could be reduced to 2.37 Mwords without degradation in triples

 Integral transformation finished. Total CPU:   0.08 sec, npass=  1  Memory used:   0.62 MW

 Reference energy:                    -76.06569124

 Adding F12 terms to K(Cij), methodcc=6,  factor= 1.0

 ITER.      SQ.NORM     CORR.ENERGY   TOTAL ENERGY   ENERGY CHANGE        DEN1      VAR(S)    VAR(P)  DIIS     TIME  TIME/IT
   1      1.06031572    -0.27220025   -76.33789149    -0.00049009     0.00507617  0.68D-03  0.90D-03  1  1     2.95     0.07
   2      1.06334587    -0.27192256   -76.33761380     0.00027769    -0.00434908  0.11D-04  0.92D-04  2  2     3.02     0.07
   3      1.06437509    -0.27203687   -76.33772811    -0.00011431    -0.00073317  0.77D-05  0.58D-05  3  3     3.09     0.08
   4      1.06483716    -0.27205649   -76.33774773    -0.00001962    -0.00031562  0.38D-06  0.45D-06  4  4     3.16     0.08
   5      1.06491548    -0.27205494   -76.33774618     0.00000155    -0.00001696  0.10D-06  0.27D-07  5  5     3.22     0.08
   6      1.06493651    -0.27205376   -76.33774499     0.00000119    -0.00000343  0.89D-08  0.27D-08  6  6     3.28     0.08
   7      1.06494196    -0.27205341   -76.33774464     0.00000035    -0.00000126  0.73D-09  0.21D-09  6  1     3.33     0.08
   8      1.06494321    -0.27205346   -76.33774470    -0.00000006    -0.00000001  0.52D-10  0.21D-10  6  2     3.40     0.08

 Norm of t1 vector:      0.03383805      S-energy:    -0.00000009      T1 diagnostic:  0.00845951
                                                                       D1 diagnostic:  0.01684694

 Adding energy correction from Wij-K(Fij), methodcc=6  factor= 1.0
 
  CCSD correlation energy              -0.272053460694
  MP2-F12 correction (uncoupled)       -0.025192163706
  C*T doubles correction               -0.000843362961
  f12b correction                       0.004262186815


 Total CPU time for triples:      0.30 sec


 RESULTS
 =======

  Reference energy                    -76.064640678598
  F12 singles correction               -0.001050556451

 F12 singles corrections added to reference energy

  New reference energy                -76.065691235049

  F12a singlet correction              -0.023297275497
  F12a triplet correction              -0.002738251171
  F12a total correction                -0.026035526667

 F12a corrections for ansatz F12/3C(FIX) added to CCSD energy
 
  CCSD-F12a singlet pair energy        -0.207446062316
  CCSD-F12a triplet pair energy        -0.090642833516
  CCSD-F12a correlation energy         -0.298088987361

  Triples (T) contribution             -0.008537522419
  Total correlation energy             -0.306626509780

  CCSD-F12a total energy              -76.363780222410
  CCSD[T]-F12a energy                 -76.372594410224
  CCSD-T-F12a energy                  -76.372197921086
 !CCSD(T)-F12a total energy           -76.372317744829

 F12b corrections for ansatz F12/3C(FIX) added to CCSD(T)-F12a energy

  CCSD-F12b singlet pair energy        -0.203496352748
  CCSD-F12b triplet pair energy        -0.090330356269
  CCSD-F12b correlation energy         -0.293826800546

  Triples (T) contribution             -0.008537522419
  Total correlation energy             -0.302364322965

  CCSD-F12b total energy              -76.359518035595
  CCSD[T]-F12b energy                 -76.368332223409
  CCSD-T-F12b energy                  -76.367935734271
 !CCSD(T)-F12b total energy           -76.368055558014

 Timing summary (sec):

 STEP                 CPU(USER)    SYS     CPU(TOT)    WALL
 Transformation          0.08      0.01      0.09      0.10
 CCSD iterations         0.54      0.13      0.67      0.68
 Triples                 0.30      0.01      0.31      0.30
 MP2-F12                 2.78      0.08      2.86      2.86
 F12b energy             0.04      0.01      0.05      0.07

 Program statistics:

 Available memory in ccsd:                49999786
 Min. memory needed in ccsd:                145972
 Max. memory used in ccsd:                  166319
 Max. memory used in cckext:                248663 ( 9 integral passes)



 **********************************************************************************************************************************
 DATASETS  * FILE   NREC   LENGTH (MB)   RECORD NAMES
              1      20       56.28       500      610      700      900      950      970     1000      129      960     1100   
                                          VAR    BASINP    GEOM    SYMINP    ZMAT    AOBASIS   BASIS     P2S    ABASIS      S 
                                         1400     1410     1200     1210     1080     1600     1650     1300     1700     1380   
                                           T        V       H0       H01     AOSYM     SMH    MOLCAS    ERIS     OPER     JKOP   

              2       6        2.97       700     1000      520     2100     7360     7350   
                                         GEOM     BASIS   MCVARS     RHF    F12ABS    EF12   

 PROGRAMS   *        TOTAL   CCSD(T)        HF       INT
 CPU TIMES  *         4.80      3.76      0.28      0.66
 REAL TIME  *         5.67 SEC
 DISK USED  *       124.76 MB      
 **********************************************************************************************************************************

 CCSD(T)-F12/cc-pVTZ-F12 energy=    -76.368055558014

     CCSD(T)-F12        HF-SCF  
    -76.36805556    -76.06464068
 **********************************************************************************************************************************
 Molpro calculation terminated
 Variable memory released
