
 Primary working directories    : /tmp/r2518/22836.maple
 Secondary working directories  : /tmp/r2518/22836.maple
 Wavefunction directory         : /ddn/home1/r2518/wfu/
 Main file repository           : /tmp/r2518/22836.maple/

 SHA1      : d5ffa45e93fdbca01ffc919aa182cfdae0147319
 NAME      : 2015.1.35
 ARCHNAME  : linux/x86_64
 FC        : /opt/intel/composer_xe_2015.1.133/bin/intel64/ifort
 BLASLIB   : -Wl,-_start-group /opt/intel/mkl/lib/intel64/libmkl_intel_ilp64.a /opt/intel/mkl/lib/intel64/libmkl_intel_thread.a /opt/intel/mkl/lib/intel64/libmkl_core.a -Wl,-_end-group
 id        : olemiss

 Nodes     nprocs
 cn055        1

 Using customized tuning parameters: mindgm=1; mindgv=20; mindgc=4; mindgr=1; noblas=0; minvec=7
 default implementation of scratch files=df  

 memory,50,m
 nocompress;
 geomtyp=xyz
 angstrom
 geometry={
 O,0.0,0.0,-0.015744156799999992
 H,0.0,0.8074590974,0.5217905143
 H,0.0,-0.7574590974,0.5217905143
 }
 basis=cc-pVTZ-F12
 set,charge=0
 set,spin=0
 hf
 {CCSD(T)-F12}

 Variables initialized (889), CPU time= 0.00 sec
 Commands  initialized (702), CPU time= 0.01 sec, 572 directives.
 Default parameters read. Elapsed time= 0.07 sec

 Checking input...
 Passed
1


                                         ***  PROGRAM SYSTEM MOLPRO  ***
                                       Copyright, TTI GmbH Stuttgart, 2015
                                    Version 2015.1 linked Jul  9 2018 13:16:40


 **********************************************************************************************************************************
 LABEL *                                                                                 
  64 bit serial version                                                                  DATE: 28-Aug-19          TIME: 15:37:26  
 **********************************************************************************************************************************

 SHA1:             d5ffa45e93fdbca01ffc919aa182cfdae0147319
 **********************************************************************************************************************************

 Input parameters for SORTINT:

 COMPRESS =    0.000000
 C_FINAL  =    1.000000
 DEBUG    =   -1.000000
 C_SORT1  =    0.000000
 C_SEWARD =    0.000000
 THRESH   =    0.000000
 IO       =  molpro                                                          
 SPRI     =    0.000000
 SETTING GEOMTYP        =    XYZ
 ZUNIT=ANG
 

 Variable memory set to   50000000 words,  buffer space   230000 words

 SETTING BASIS          =    CC-PVTZ-F12
 SETTING CHARGE         =     0.00000000D+00                                  
 SETTING SPIN           =     0.00000000D+00                                  


 Recomputing integrals since basis changed


 Using spherical harmonics

 Library entry O      S cc-pVTZ-F12          selected for orbital group  1
 Library entry O      P cc-pVTZ-F12          selected for orbital group  1
 Library entry O      D cc-pVTZ-F12          selected for orbital group  1
 Library entry O      F cc-pVTZ-F12          selected for orbital group  1
 Library entry H      S cc-pVTZ-F12          selected for orbital group  2
 Library entry H      P cc-pVTZ-F12          selected for orbital group  2
 Library entry H      D cc-pVTZ-F12          selected for orbital group  2


 PROGRAM * SEWARD (Integral evaluation for generally contracted gaussian basis sets)     Author: Roland Lindh, 1990

 Geometry written to block  1 of record 700


 Point group  Cs  



 ATOMIC COORDINATES

 NR  ATOM    CHARGE       X              Y              Z

   1  O       8.00    0.000000000    0.000000000   -0.029752144
   2  H       1.00    0.000000000    1.525876551    0.986041166
   3  H       1.00    0.000000000   -1.431390245    0.986041166

 Bond lengths in Bohr (Angstrom)

 1-2  1.833067183  1-3  1.755196309
     ( 0.970017380)     ( 0.928809887)

 Bond angles

  2-1-3  110.98623442

 NUCLEAR CHARGE:                   10
 NUMBER OF PRIMITIVE AOS:         114
 NUMBER OF SYMMETRY AOS:          103
 NUMBER OF CONTRACTIONS:           89   (  61A'  +  28A"  )
 NUMBER OF CORE ORBITALS:           1   (   1A'  +   0A"  )
 NUMBER OF VALENCE ORBITALS:        6   (   5A'  +   1A"  )


 NUCLEAR REPULSION ENERGY    9.26031474

 Eigenvalues of metric

         1 0.205E-03 0.424E-03 0.568E-03 0.706E-03 0.787E-03 0.158E-02 0.197E-02 0.218E-02
         2 0.690E-03 0.750E-02 0.102E-01 0.415E-01 0.837E-01 0.910E-01 0.118E+00 0.188E+00


 Contracted 2-electron integrals neglected if value below      1.0D-11

        3628565. INTEGRALS WRITTEN OUT IN     887 BLOCKS ON RECORD 1290 OF FILE 1


 NUMBER OF SORTED TWO-ELECTRON INTEGRALS:    4174745.     BUFFER LENGTH:  32768
 NUMBER OF SEGMENTS:   1  SEGMENT LENGTH:    4174745      RECORD LENGTH: 524288

 Memory used in sort:       4.73 MW

 SORT1 READ     3628565. AND WROTE     3690289. INTEGRALS IN     11 RECORDS. CPU TIME:     0.13 SEC, REAL TIME:     0.15 SEC
 SORT2 READ     3690289. AND WROTE     4174745. INTEGRALS IN      1 RECORDS. CPU TIME:     0.09 SEC, REAL TIME:     0.13 SEC

 FILE SIZES:   FILE 1:    78.3 MBYTE,  FILE 4:    46.2 MBYTE,   TOTAL:    124.4 MBYTE

 OPERATOR DM      FOR CENTER  0  COORDINATES:    0.000000    0.000000    0.000000


 **********************************************************************************************************************************
 DATASETS  * FILE   NREC   LENGTH (MB)   RECORD NAMES
              1      19       50.78       500      610      700      900      950      970     1000      129      960     1100   
                                          VAR    BASINP    GEOM    SYMINP    ZMAT    AOBASIS   BASIS     P2S    ABASIS      S 
                                         1400     1410     1200     1210     1080     1600     1650     1300     1700   
                                           T        V       H0       H01     AOSYM     SMH    MOLCAS    ERIS     OPER   

 PROGRAMS   *        TOTAL       INT
 CPU TIMES  *         0.72      0.62
 REAL TIME  *         1.22 SEC
 DISK USED  *       124.76 MB      
 **********************************************************************************************************************************


 PROGRAM * RHF-SCF (CLOSED SHELL)       Authors: W. Meyer, H.-J. Werner


 NUMBER OF ELECTRONS:       5+    5-
 CONVERGENCE THRESHOLDS:    1.00E-05 (Density)    1.00E-07 (Energy)
 MAX. NUMBER OF ITERATIONS:       60
 INTERPOLATION TYPE:            DIIS
 INTERPOLATION STEPS:              2 (START)      1 (STEP)
 LEVEL SHIFTS:                  0.00 (CLOSED)  0.00 (OPEN) 



 Orbital guess generated from atomic densities. Full valence occupancy:    6   1

 Molecular orbital dump at record        2100.2

 Initial occupancy:   4   1

 ITERATION    DDIFF          GRAD             ENERGY        2-EL.EN.            DIPOLE MOMENTS         DIIS   ORB.
    1      0.000D+00      0.000D+00       -76.02698305     77.827441    0.00000    0.06340    1.05336    0    start
    2      0.000D+00      0.136D-01       -76.05341227     74.247120    0.00000    0.02591    0.64340    1    diag
    3      0.146D-01      0.834D-02       -76.06398770     75.801810    0.00000    0.03235    0.74257    2    diag
    4      0.498D-02      0.782D-03       -76.06416912     75.713217    0.00000    0.02986    0.73992    3    diag
    5      0.737D-03      0.208D-03       -76.06418586     75.725490    0.00000    0.02891    0.73870    4    diag
    6      0.244D-03      0.396D-04       -76.06418686     75.724658    0.00000    0.02861    0.73844    5    diag
    7      0.721D-04      0.770D-05       -76.06418691     75.724800    0.00000    0.02853    0.73831    6    diag
    8      0.160D-04      0.170D-05       -76.06418691     75.724793    0.00000    0.02851    0.73825    7    diag
    9      0.299D-05      0.230D-06       -76.06418691     75.724783    0.00000    0.02851    0.73825    0    orth

 Final occupancy:   4   1

 !RHF STATE 1.1 Energy                -76.064186913506
 Nuclear energy                         9.26031474
 One-electron energy                 -123.18689296
 Two-electron energy                   37.86239130
 Virial quotient                       -1.00061587
 !RHF STATE 1.1 Dipole moment           0.00000000     0.02851098     0.73824917
 Dipole moment /Debye                   0.00000000     0.07246294     1.87631932

 Orbital energies:

         1.1          2.1          3.1          4.1          5.1          6.1
    -20.560488    -1.352905    -0.734563    -0.573807     0.103938     0.118195

         1.2          2.2          3.2
     -0.509292     0.145354     0.476094

 HOMO      1.2    -0.509292 =     -13.8586eV
 LUMO      5.1     0.103938 =       2.8283eV
 LUMO-HOMO         0.613231 =      16.6869eV


 **********************************************************************************************************************************
 DATASETS  * FILE   NREC   LENGTH (MB)   RECORD NAMES
              1      19       50.78       500      610      700      900      950      970     1000      129      960     1100   
                                          VAR    BASINP    GEOM    SYMINP    ZMAT    AOBASIS   BASIS     P2S    ABASIS      S 
                                         1400     1410     1200     1210     1080     1600     1650     1300     1700   
                                           T        V       H0       H01     AOSYM     SMH    MOLCAS    ERIS     OPER   

              2       4        2.88       700     1000      520     2100   
                                         GEOM     BASIS   MCVARS     RHF  

 PROGRAMS   *        TOTAL        HF       INT
 CPU TIMES  *         1.00      0.28      0.62
 REAL TIME  *         1.58 SEC
 DISK USED  *       124.76 MB      
 **********************************************************************************************************************************


 PROGRAM * CCSD (Closed-shell coupled cluster)     Authors: C. Hampel, H.-J. Werner, 1991, M. Deegan, P.J. Knowles, 1992

                                  CCSD-F12 implementation by  H.-J. Werner, 2007

                   Density fitting integral evaluation by F.R. Manby, 2003,2007, G. Knizia, 2010

 Basis set AUG-CC-PVTZ/JKFIT generated.  Number of basis functions:   196 
 Basis set CC-PVTZ-F12/OPTRI generated.  Number of basis functions:   157 
 Basis set AUG-CC-PVTZ/MP2FIT generated. Number of basis functions:   198 

 Convergence thresholds:  THRVAR = 1.00D-08  THRDEN = 1.00D-06

 CCSD(T)     terms to be evaluated (factor= 1.000)


 Number of core orbitals:           1 (   1   0 )
 Number of closed-shell orbitals:   4 (   3   1 )
 Number of external orbitals:      84 (  57  27 )

 Molecular orbitals read from record     2100.2  Type=RHF/CANONICAL (state 1.1)

 MP2-F12 correlation treatment (H.-J. Werner, 2006)
 ==================================================

 Using MP2-F12 with ansatz 3C(FIX)

 Using projected zeroth-order Hamiltonian (+Z)

 FOCKRIB=T FOCKRIC=T FOCKRIP=T CABSP=T CABSA=T CABSK=T CABSF=T GBC=F EBC=F DMAT=T NOFIK=T NOPAO=1 SOLVE=-1  USEPAO=0
 EXCH_A= T EXCH_B= F EXCH_C= F EXCH_P= F
 
 Geminal basis:    OPTFULL  GEM_TYPE=SLATER  BETA=1.0  NGEM=6

 Optimizing Gaussian exponents for each gem_beta

 Geminal optimization for beta= 1.0000
 Weight function:   m=0, omega= 1.4646

 Augmented Hessian optimization of geminal fit. Trust ratio= 0.40000
 Convergence reached after   2 iterations. Final gradient= 8.41D-16, Step= 4.29D-06, Delta= 1.28D-09
 
 Alpha:                 0.19532     0.81920     2.85917     9.50073    35.69989   197.79328
 Coeff:                 0.27070     0.30552     0.18297     0.10986     0.06810     0.04224
 

 Symmetry turned off. Reference energy:        -76.064186913506

 All pairs explicitly correlated. Number of r12-pairs:           10

 Excluding core orbitals from MO domains
 
 AO(A)-basis ORBITAL           loaded. Number of functions:      89
 RI(R)-basis CC-PVTZ-F12/OPTRI loaded. Number of functions:     157
 DF-basis AUG-CC-PVTZ/JKFIT    loaded. Number of functions:     196

 Screening thresholds:   THRAO=  1.00D-10  THRMO=  1.00D-09  THRPROD=  1.00D-09
                         THRSW=  1.00D-05  THROV=  1.00D-12  THRAOF12=   1.00D-08

 CPU time for Fock operators                      1.06 sec
 
 Construction of ABS:
 Smallest eigenvalue of S          7.30E-04  (threshold= 1.00E-08)
 Ratio eigmin/eigmax               1.22E-04  (threshold= 1.00E-09)
 Smallest eigenvalue of S kept     7.30E-04  (threshold= 7.30E-04, 0 functions deleted, 157 kept)
 
 Construction of CABS:
 Smallest eigenvalue of S          1.75E-06  (threshold= 1.00E-08)
 Ratio eigmin/eigmax               1.75E-06  (threshold= 1.00E-09)
 Smallest eigenvalue of S kept     1.75E-06  (threshold= 1.75E-06, 0 functions deleted, 157 kept)
 
 CPU time for CABS singles                        0.02 sec

 CABS-singles contribution of  -0.00102243 patched into reference energy.
 New reference energy         -76.06520934
 
 AO(A)-basis ORBITAL           loaded. Number of functions:      89
 RI(R)-basis CC-PVTZ-F12/OPTRI loaded. Number of functions:     157
 DF-basis AUG-CC-PVTZ/MP2FIT   loaded. Number of functions:     198

 Screening thresholds:   THRAO=  1.00D-10  THRMO=  1.00D-09  THRPROD=  1.00D-09
                         THRSW=  1.00D-05  THROV=  1.00D-12  THRAOF12=   1.00D-08

 CPU time for 3-index integral evaluation         0.56 sec
 CPU time for first  half transformation          0.04 sec ( 4409.0 MFLOP/sec)
 CPU time for fitting                             0.02 sec ( 4092.9 MFLOP/sec)
 CPU time for assembly                            0.03 sec (17837.5 MFLOP/sec)
 CPU time for tranop_f12                          0.03 sec (21731.0 MFLOP/sec)
 CPU time for f12 integrals (total)               1.57 sec, Elapsed time:      1.59 sec
 CPU time for f12 matrices (total)                0.02 sec, Elapsed time:      0.01 sec

 Diagonal F12 approximation with fixed coefficients:  TSING= 0.500,  TTRIP= 0.250 (scaled by -1/beta)

 DF-MP2-F12 energy corrections:
 ==============================
 Approx.                                    Singlet             Triplet             Total
 DF-MP2-F12/3*C(DX,FIX)                -0.025345509272     -0.003032393857     -0.028377903129
 DF-MP2-F12/3*C(FIX)                   -0.023534636615     -0.002737927492     -0.026272564108
 DF-MP2-F12/3C(FIX)                    -0.023459356006     -0.002834223343     -0.026293579349

 DF-MP2-F12 correlation energies:
 ================================
 Approx.                                    Singlet             Triplet             Ecorr            Total Energy
 DF-MP2                                -0.173140125878     -0.098848650112     -0.271988775990    -76.337198119828
 DF-MP2-F12/3*C(DX,FIX)                -0.198485635150     -0.101881043969     -0.300366679119    -76.365576022957
 DF-MP2-F12/3*C(FIX)                   -0.196674762493     -0.101586577605     -0.298261340097    -76.363470683936
 DF-MP2-F12/3C(FIX)                    -0.196599481884     -0.101682873456     -0.298282355339    -76.363491699178

 SCS-DF-MP2 energies (F_SING= 1.20000  F_TRIP= 0.62222  F_PARALLEL= 0.33333):
 ============================================================================
 SCS-DF-MP2                            -0.269273977790    -76.334483321628
 SCS-DF-MP2-F12/3*C(DX,FIX)            -0.301575411760    -76.366784755599
 SCS-DF-MP2-F12/3*C(FIX)               -0.299219141056    -76.364428484895
 SCS-DF-MP2-F12/3C(FIX)                -0.299188721744    -76.364398065582

 Symmetry restored.
 Symmetry transformation completed.

 Number of N-1 electron functions:               4
 Number of N-2 electron functions:              10
 Number of singly external CSFs:               198
 Number of doubly external CSFs:             29292
 Total number of CSFs:                       29491

 Length of J-op  integral file:               8.97 MB
 Length of K-op  integral file:              13.62 MB
 Length of 3-ext integral record:             0.00 MB

 Memory could be reduced to 2.37 Mwords without degradation in triples

 Integral transformation finished. Total CPU:   0.07 sec, npass=  1  Memory used:   0.62 MW

 Reference energy:                    -76.06520934

 Adding F12 terms to K(Cij), methodcc=6,  factor= 1.0

 ITER.      SQ.NORM     CORR.ENERGY   TOTAL ENERGY   ENERGY CHANGE        DEN1      VAR(S)    VAR(P)  DIIS     TIME  TIME/IT
   1      1.06071934    -0.27245378   -76.33766312    -0.00042216     0.00518714  0.68D-03  0.92D-03  1  1     3.00     0.07
   2      1.06380340    -0.27219041   -76.33739975     0.00026337    -0.00438846  0.12D-04  0.95D-04  2  2     3.06     0.07
   3      1.06486196    -0.27230872   -76.33751806    -0.00011831    -0.00074962  0.79D-05  0.60D-05  3  3     3.12     0.07
   4      1.06533563    -0.27232888   -76.33753823    -0.00002016    -0.00032097  0.38D-06  0.47D-06  4  4     3.19     0.07
   5      1.06541653    -0.27232737   -76.33753671     0.00000151    -0.00001744  0.11D-06  0.28D-07  5  5     3.26     0.07
   6      1.06543844    -0.27232618   -76.33753552     0.00000119    -0.00000366  0.91D-08  0.28D-08  6  6     3.32     0.07
   7      1.06544412    -0.27232584   -76.33753518     0.00000034    -0.00000131  0.79D-09  0.21D-09  6  1     3.39     0.07
   8      1.06544542    -0.27232590   -76.33753524    -0.00000006    -0.00000000  0.62D-10  0.23D-10  6  2     3.46     0.08

 Norm of t1 vector:      0.03397251      S-energy:    -0.00000010      T1 diagnostic:  0.00849313
                                                                       D1 diagnostic:  0.01681312

 Adding energy correction from Wij-K(Fij), methodcc=6  factor= 1.0
 
  CCSD correlation energy              -0.272325895428
  MP2-F12 correction (uncoupled)       -0.025175012381
  C*T doubles correction               -0.000839867097
  f12b correction                       0.004272139519


 Total CPU time for triples:      0.31 sec


 RESULTS
 =======

  Reference energy                    -76.064186913506
  F12 singles correction               -0.001022430333

 F12 singles corrections added to reference energy

  New reference energy                -76.065209343839

  F12a singlet correction              -0.023286441410
  F12a triplet correction              -0.002728438068
  F12a total correction                -0.026014879478

 F12a corrections for ansatz F12/3C(FIX) added to CCSD energy
 
  CCSD-F12a singlet pair energy        -0.207724596573
  CCSD-F12a triplet pair energy        -0.090616078182
  CCSD-F12a correlation energy         -0.298340774905

  Triples (T) contribution             -0.008594188564
  Total correlation energy             -0.306934963470

  CCSD-F12a total energy              -76.363550118744
  CCSD[T]-F12a energy                 -76.372423919600
  CCSD-T-F12a energy                  -76.372023566793
 !CCSD(T)-F12a total energy           -76.372144307308

 F12b corrections for ansatz F12/3C(FIX) added to CCSD(T)-F12a energy

  CCSD-F12b singlet pair energy        -0.203764700694
  CCSD-F12b triplet pair energy        -0.090303834541
  CCSD-F12b correlation energy         -0.294068635386

  Triples (T) contribution             -0.008594188564
  Total correlation energy             -0.302662823950

  CCSD-F12b total energy              -76.359277979225
  CCSD[T]-F12b energy                 -76.368151780080
  CCSD-T-F12b energy                  -76.367751427273
 !CCSD(T)-F12b total energy           -76.367872167789

 Timing summary (sec):

 STEP                 CPU(USER)    SYS     CPU(TOT)    WALL
 Transformation          0.08      0.01      0.09      0.09
 CCSD iterations         0.57      0.10      0.67      0.68
 Triples                 0.31      0.02      0.33      0.32
 MP2-F12                 2.81      0.04      2.85      2.86
 F12b energy             0.04      0.02      0.06      0.06

 Program statistics:

 Available memory in ccsd:                49999786
 Min. memory needed in ccsd:                145972
 Max. memory used in ccsd:                  166319
 Max. memory used in cckext:                248663 ( 9 integral passes)



 **********************************************************************************************************************************
 DATASETS  * FILE   NREC   LENGTH (MB)   RECORD NAMES
              1      20       56.28       500      610      700      900      950      970     1000      129      960     1100   
                                          VAR    BASINP    GEOM    SYMINP    ZMAT    AOBASIS   BASIS     P2S    ABASIS      S 
                                         1400     1410     1200     1210     1080     1600     1650     1300     1700     1380   
                                           T        V       H0       H01     AOSYM     SMH    MOLCAS    ERIS     OPER     JKOP   

              2       6        2.97       700     1000      520     2100     7360     7350   
                                         GEOM     BASIS   MCVARS     RHF    F12ABS    EF12   

 PROGRAMS   *        TOTAL   CCSD(T)        HF       INT
 CPU TIMES  *         4.84      3.82      0.28      0.62
 REAL TIME  *         5.64 SEC
 DISK USED  *       124.76 MB      
 **********************************************************************************************************************************

 CCSD(T)-F12/cc-pVTZ-F12 energy=    -76.367872167789

     CCSD(T)-F12        HF-SCF  
    -76.36787217    -76.06418691
 **********************************************************************************************************************************
 Molpro calculation terminated
 Variable memory released
