
 Primary working directories    : /tmp/r2518/22913.maple
 Secondary working directories  : /tmp/r2518/22913.maple
 Wavefunction directory         : /ddn/home1/r2518/wfu/
 Main file repository           : /tmp/r2518/22913.maple/

 SHA1      : d5ffa45e93fdbca01ffc919aa182cfdae0147319
 NAME      : 2015.1.35
 ARCHNAME  : linux/x86_64
 FC        : /opt/intel/composer_xe_2015.1.133/bin/intel64/ifort
 BLASLIB   : -Wl,-_start-group /opt/intel/mkl/lib/intel64/libmkl_intel_ilp64.a /opt/intel/mkl/lib/intel64/libmkl_intel_thread.a /opt/intel/mkl/lib/intel64/libmkl_core.a -Wl,-_end-group
 id        : olemiss

 Nodes     nprocs
 cn058        1

 Using customized tuning parameters: mindgm=1; mindgv=20; mindgc=4; mindgr=1; noblas=0; minvec=7
 default implementation of scratch files=df  

 memory,50,m
 nocompress;
 geomtyp=xyz
 angstrom
 geometry={
 O,0.0,-0.05,-0.0657441568
 H,0.0,0.7574590974,0.5217905143
 H,0.0,-0.7074590973999999,0.5217905143
 }
 basis=cc-pVTZ-F12
 set,charge=0
 set,spin=0
 hf
 {CCSD(T)-F12}

 Variables initialized (889), CPU time= 0.00 sec
 Commands  initialized (702), CPU time= 0.01 sec, 572 directives.
 Default parameters read. Elapsed time= 0.06 sec

 Checking input...
 Passed
1


                                         ***  PROGRAM SYSTEM MOLPRO  ***
                                       Copyright, TTI GmbH Stuttgart, 2015
                                    Version 2015.1 linked Jul  9 2018 13:16:40


 **********************************************************************************************************************************
 LABEL *                                                                                 
  64 bit serial version                                                                  DATE: 28-Aug-19          TIME: 15:37:35  
 **********************************************************************************************************************************

 SHA1:             d5ffa45e93fdbca01ffc919aa182cfdae0147319
 **********************************************************************************************************************************

 Input parameters for SORTINT:

 COMPRESS =    0.000000
 C_FINAL  =    1.000000
 DEBUG    =   -1.000000
 C_SORT1  =    0.000000
 C_SEWARD =    0.000000
 THRESH   =    0.000000
 IO       =  molpro                                                          
 SPRI     =    0.000000
 SETTING GEOMTYP        =    XYZ
 ZUNIT=ANG
 

 Variable memory set to   50000000 words,  buffer space   230000 words

 SETTING BASIS          =    CC-PVTZ-F12
 SETTING CHARGE         =     0.00000000D+00                                  
 SETTING SPIN           =     0.00000000D+00                                  


 Recomputing integrals since basis changed


 Using spherical harmonics

 Library entry O      S cc-pVTZ-F12          selected for orbital group  1
 Library entry O      P cc-pVTZ-F12          selected for orbital group  1
 Library entry O      D cc-pVTZ-F12          selected for orbital group  1
 Library entry O      F cc-pVTZ-F12          selected for orbital group  1
 Library entry H      S cc-pVTZ-F12          selected for orbital group  2
 Library entry H      P cc-pVTZ-F12          selected for orbital group  2
 Library entry H      D cc-pVTZ-F12          selected for orbital group  2


 PROGRAM * SEWARD (Integral evaluation for generally contracted gaussian basis sets)     Author: Roland Lindh, 1990

 Geometry written to block  1 of record 700


 Point group  Cs  



 ATOMIC COORDINATES

 NR  ATOM    CHARGE       X              Y              Z

   1  O       8.00    0.000000000   -0.094486306   -0.124238451
   2  H       1.00    0.000000000    1.431390245    0.986041166
   3  H       1.00    0.000000000   -1.336903938    0.986041166

 Bond lengths in Bohr (Angstrom)

 1-2  1.887066527  1-3  1.666229996
     ( 0.998592601)     ( 0.881730942)

 Bond angles

  2-1-3  102.17370176

 NUCLEAR CHARGE:                   10
 NUMBER OF PRIMITIVE AOS:         114
 NUMBER OF SYMMETRY AOS:          103
 NUMBER OF CONTRACTIONS:           89   (  61A'  +  28A"  )
 NUMBER OF CORE ORBITALS:           1   (   1A'  +   0A"  )
 NUMBER OF VALENCE ORBITALS:        6   (   5A'  +   1A"  )


 NUCLEAR REPULSION ENERGY    9.40187541

 Eigenvalues of metric

         1 0.190E-03 0.449E-03 0.568E-03 0.704E-03 0.779E-03 0.152E-02 0.190E-02 0.207E-02
         2 0.687E-03 0.618E-02 0.113E-01 0.430E-01 0.821E-01 0.881E-01 0.123E+00 0.178E+00


 Contracted 2-electron integrals neglected if value below      1.0D-11

        3628592. INTEGRALS WRITTEN OUT IN     887 BLOCKS ON RECORD 1290 OF FILE 1


 NUMBER OF SORTED TWO-ELECTRON INTEGRALS:    4174745.     BUFFER LENGTH:  32768
 NUMBER OF SEGMENTS:   1  SEGMENT LENGTH:    4174745      RECORD LENGTH: 524288

 Memory used in sort:       4.73 MW

 SORT1 READ     3628592. AND WROTE     3690316. INTEGRALS IN     11 RECORDS. CPU TIME:     0.12 SEC, REAL TIME:     0.15 SEC
 SORT2 READ     3690316. AND WROTE     4174745. INTEGRALS IN      1 RECORDS. CPU TIME:     0.10 SEC, REAL TIME:     0.13 SEC

 FILE SIZES:   FILE 1:    78.3 MBYTE,  FILE 4:    46.2 MBYTE,   TOTAL:    124.4 MBYTE

 OPERATOR DM      FOR CENTER  0  COORDINATES:    0.000000    0.000000    0.000000


 **********************************************************************************************************************************
 DATASETS  * FILE   NREC   LENGTH (MB)   RECORD NAMES
              1      19       50.78       500      610      700      900      950      970     1000      129      960     1100   
                                          VAR    BASINP    GEOM    SYMINP    ZMAT    AOBASIS   BASIS     P2S    ABASIS      S 
                                         1400     1410     1200     1210     1080     1600     1650     1300     1700   
                                           T        V       H0       H01     AOSYM     SMH    MOLCAS    ERIS     OPER   

 PROGRAMS   *        TOTAL       INT
 CPU TIMES  *         0.73      0.63
 REAL TIME  *         1.19 SEC
 DISK USED  *       124.76 MB      
 **********************************************************************************************************************************


 PROGRAM * RHF-SCF (CLOSED SHELL)       Authors: W. Meyer, H.-J. Werner


 NUMBER OF ELECTRONS:       5+    5-
 CONVERGENCE THRESHOLDS:    1.00E-05 (Density)    1.00E-07 (Energy)
 MAX. NUMBER OF ITERATIONS:       60
 INTERPOLATION TYPE:            DIIS
 INTERPOLATION STEPS:              2 (START)      1 (STEP)
 LEVEL SHIFTS:                  0.00 (CLOSED)  0.00 (OPEN) 



 Orbital guess generated from atomic densities. Full valence occupancy:    6   1

 Molecular orbital dump at record        2100.2

 Initial occupancy:   4   1

 ITERATION    DDIFF          GRAD             ENERGY        2-EL.EN.            DIPOLE MOMENTS         DIIS   ORB.
    1      0.000D+00      0.000D+00       -76.01845922     78.005840    0.00000    0.18002    1.13422    0    start
    2      0.000D+00      0.138D-01       -76.04640476     74.392050    0.00000    0.06976    0.68181    1    diag
    3      0.152D-01      0.853D-02       -76.05746925     75.963027    0.00000    0.08967    0.79449    2    diag
    4      0.509D-02      0.808D-03       -76.05766421     75.875095    0.00000    0.08280    0.79173    3    diag
    5      0.756D-03      0.224D-03       -76.05768451     75.888863    0.00000    0.08008    0.79063    4    diag
    6      0.265D-03      0.448D-04       -76.05768582     75.887910    0.00000    0.07924    0.79041    5    diag
    7      0.747D-04      0.921D-05       -76.05768589     75.888028    0.00000    0.07903    0.79030    6    diag
    8      0.157D-04      0.170D-05       -76.05768589     75.888018    0.00000    0.07900    0.79026    7    diag
    9      0.298D-05      0.229D-06       -76.05768589     75.888005    0.00000    0.07900    0.79026    0    orth

 Final occupancy:   4   1

 !RHF STATE 1.1 Energy                -76.057685890090
 Nuclear energy                         9.40187541
 One-electron energy                 -123.40356360
 Two-electron energy                   37.94400230
 Virial quotient                       -0.99952524
 !RHF STATE 1.1 Dipole moment           0.00000000     0.07899801     0.79025891
 Dipole moment /Debye                   0.00000000     0.20077977     2.00850624

 Orbital energies:

         1.1          2.1          3.1          4.1          5.1          6.1
    -20.562069    -1.367304    -0.723743    -0.591739     0.099246     0.121043

         1.2          2.2          3.2
     -0.512924     0.144942     0.482005

 HOMO      1.2    -0.512924 =     -13.9574eV
 LUMO      5.1     0.099246 =       2.7006eV
 LUMO-HOMO         0.612170 =      16.6580eV


 **********************************************************************************************************************************
 DATASETS  * FILE   NREC   LENGTH (MB)   RECORD NAMES
              1      19       50.78       500      610      700      900      950      970     1000      129      960     1100   
                                          VAR    BASINP    GEOM    SYMINP    ZMAT    AOBASIS   BASIS     P2S    ABASIS      S 
                                         1400     1410     1200     1210     1080     1600     1650     1300     1700   
                                           T        V       H0       H01     AOSYM     SMH    MOLCAS    ERIS     OPER   

              2       4        2.88       700     1000      520     2100   
                                         GEOM     BASIS   MCVARS     RHF  

 PROGRAMS   *        TOTAL        HF       INT
 CPU TIMES  *         1.00      0.27      0.63
 REAL TIME  *         1.55 SEC
 DISK USED  *       124.76 MB      
 **********************************************************************************************************************************


 PROGRAM * CCSD (Closed-shell coupled cluster)     Authors: C. Hampel, H.-J. Werner, 1991, M. Deegan, P.J. Knowles, 1992

                                  CCSD-F12 implementation by  H.-J. Werner, 2007

                   Density fitting integral evaluation by F.R. Manby, 2003,2007, G. Knizia, 2010

 Basis set AUG-CC-PVTZ/JKFIT generated.  Number of basis functions:   196 
 Basis set CC-PVTZ-F12/OPTRI generated.  Number of basis functions:   157 
 Basis set AUG-CC-PVTZ/MP2FIT generated. Number of basis functions:   198 

 Convergence thresholds:  THRVAR = 1.00D-08  THRDEN = 1.00D-06

 CCSD(T)     terms to be evaluated (factor= 1.000)


 Number of core orbitals:           1 (   1   0 )
 Number of closed-shell orbitals:   4 (   3   1 )
 Number of external orbitals:      84 (  57  27 )

 Molecular orbitals read from record     2100.2  Type=RHF/CANONICAL (state 1.1)

 MP2-F12 correlation treatment (H.-J. Werner, 2006)
 ==================================================

 Using MP2-F12 with ansatz 3C(FIX)

 Using projected zeroth-order Hamiltonian (+Z)

 FOCKRIB=T FOCKRIC=T FOCKRIP=T CABSP=T CABSA=T CABSK=T CABSF=T GBC=F EBC=F DMAT=T NOFIK=T NOPAO=1 SOLVE=-1  USEPAO=0
 EXCH_A= T EXCH_B= F EXCH_C= F EXCH_P= F
 
 Geminal basis:    OPTFULL  GEM_TYPE=SLATER  BETA=1.0  NGEM=6

 Optimizing Gaussian exponents for each gem_beta

 Geminal optimization for beta= 1.0000
 Weight function:   m=0, omega= 1.4646

 Augmented Hessian optimization of geminal fit. Trust ratio= 0.40000
 Convergence reached after   2 iterations. Final gradient= 8.41D-16, Step= 4.29D-06, Delta= 1.28D-09
 
 Alpha:                 0.19532     0.81920     2.85917     9.50073    35.69989   197.79328
 Coeff:                 0.27070     0.30552     0.18297     0.10986     0.06810     0.04224
 

 Symmetry turned off. Reference energy:        -76.057685890090

 All pairs explicitly correlated. Number of r12-pairs:           10

 Excluding core orbitals from MO domains
 
 AO(A)-basis ORBITAL           loaded. Number of functions:      89
 RI(R)-basis CC-PVTZ-F12/OPTRI loaded. Number of functions:     157
 DF-basis AUG-CC-PVTZ/JKFIT    loaded. Number of functions:     196

 Screening thresholds:   THRAO=  1.00D-10  THRMO=  1.00D-09  THRPROD=  1.00D-09
                         THRSW=  1.00D-05  THROV=  1.00D-12  THRAOF12=   1.00D-08

 CPU time for Fock operators                      1.04 sec
 
 Construction of ABS:
 Smallest eigenvalue of S          6.35E-04  (threshold= 1.00E-08)
 Ratio eigmin/eigmax               1.05E-04  (threshold= 1.00E-09)
 Smallest eigenvalue of S kept     6.35E-04  (threshold= 6.35E-04, 0 functions deleted, 157 kept)
 
 Construction of CABS:
 Smallest eigenvalue of S          1.52E-06  (threshold= 1.00E-08)
 Ratio eigmin/eigmax               1.52E-06  (threshold= 1.00E-09)
 Smallest eigenvalue of S kept     1.52E-06  (threshold= 1.52E-06, 0 functions deleted, 157 kept)
 
 CPU time for CABS singles                        0.02 sec

 CABS-singles contribution of  -0.00106079 patched into reference energy.
 New reference energy         -76.05874668
 
 AO(A)-basis ORBITAL           loaded. Number of functions:      89
 RI(R)-basis CC-PVTZ-F12/OPTRI loaded. Number of functions:     157
 DF-basis AUG-CC-PVTZ/MP2FIT   loaded. Number of functions:     198

 Screening thresholds:   THRAO=  1.00D-10  THRMO=  1.00D-09  THRPROD=  1.00D-09
                         THRSW=  1.00D-05  THROV=  1.00D-12  THRAOF12=   1.00D-08

 CPU time for 3-index integral evaluation         0.53 sec
 CPU time for first  half transformation          0.04 sec ( 4409.0 MFLOP/sec)
 CPU time for sorting                             0.01 sec
 CPU time for tilde quantities                    0.01 sec (10820.3 MFLOP/sec)
 CPU time for assembly                            0.01 sec (53512.5 MFLOP/sec)
 CPU time for tranop_f12                          0.05 sec (13038.6 MFLOP/sec)
 CPU time for f12 integrals (total)               1.54 sec, Elapsed time:      1.57 sec
 CPU time for f12 matrices (total)                0.00 sec, Elapsed time:      0.01 sec

 Diagonal F12 approximation with fixed coefficients:  TSING= 0.500,  TTRIP= 0.250 (scaled by -1/beta)

 DF-MP2-F12 energy corrections:
 ==============================
 Approx.                                    Singlet             Triplet             Total
 DF-MP2-F12/3*C(DX,FIX)                -0.025399019203     -0.003048379099     -0.028447398302
 DF-MP2-F12/3*C(FIX)                   -0.023561215799     -0.002750765782     -0.026311981582
 DF-MP2-F12/3C(FIX)                    -0.023479602996     -0.002846855057     -0.026326458054

 DF-MP2-F12 correlation energies:
 ================================
 Approx.                                    Singlet             Triplet             Ecorr            Total Energy
 DF-MP2                                -0.173010737465     -0.098726760534     -0.271737497999    -76.330484180454
 DF-MP2-F12/3*C(DX,FIX)                -0.198409756669     -0.101775139633     -0.300184896301    -76.358931578756
 DF-MP2-F12/3*C(FIX)                   -0.196571953265     -0.101477526316     -0.298049479581    -76.356796162036
 DF-MP2-F12/3C(FIX)                    -0.196490340462     -0.101573615591     -0.298063956053    -76.356810638508

 SCS-DF-MP2 energies (F_SING= 1.20000  F_TRIP= 0.62222  F_PARALLEL= 0.33333):
 ============================================================================
 SCS-DF-MP2                            -0.269042869291    -76.327789551745
 SCS-DF-MP2-F12/3*C(DX,FIX)            -0.301418461552    -76.360165144006
 SCS-DF-MP2-F12/3*C(FIX)               -0.299027915848    -76.357774598302
 SCS-DF-MP2-F12/3C(FIX)                -0.298989769366    -76.357736451821

 Symmetry restored.
 Symmetry transformation completed.

 Number of N-1 electron functions:               4
 Number of N-2 electron functions:              10
 Number of singly external CSFs:               198
 Number of doubly external CSFs:             29292
 Total number of CSFs:                       29491

 Length of J-op  integral file:               8.97 MB
 Length of K-op  integral file:              13.62 MB
 Length of 3-ext integral record:             0.00 MB

 Memory could be reduced to 2.37 Mwords without degradation in triples

 Integral transformation finished. Total CPU:   0.07 sec, npass=  1  Memory used:   0.62 MW

 Reference energy:                    -76.05874668

 Adding F12 terms to K(Cij), methodcc=6,  factor= 1.0

 ITER.      SQ.NORM     CORR.ENERGY   TOTAL ENERGY   ENERGY CHANGE        DEN1      VAR(S)    VAR(P)  DIIS     TIME  TIME/IT
   1      1.06049152    -0.27230868   -76.33105537    -0.00052896     0.00507508  0.69D-03  0.91D-03  1  1     2.91     0.07
   2      1.06357582    -0.27204080   -76.33078748     0.00026789    -0.00437788  0.12D-04  0.95D-04  2  2     2.97     0.07
   3      1.06463995    -0.27215825   -76.33090493    -0.00011745    -0.00074666  0.79D-05  0.61D-05  3  3     3.02     0.07
   4      1.06512065    -0.27217809   -76.33092477    -0.00001984    -0.00032350  0.38D-06  0.47D-06  4  4     3.08     0.07
   5      1.06520180    -0.27217644   -76.33092313     0.00000165    -0.00001756  0.10D-06  0.28D-07  5  5     3.14     0.07
   6      1.06522319    -0.27217524   -76.33092192     0.00000120    -0.00000345  0.91D-08  0.27D-08  6  6     3.21     0.07
   7      1.06522872    -0.27217489   -76.33092157     0.00000036    -0.00000129  0.77D-09  0.22D-09  6  1     3.28     0.07
   8      1.06523000    -0.27217494   -76.33092162    -0.00000005    -0.00000000  0.55D-10  0.22D-10  6  2     3.34     0.07

 Norm of t1 vector:      0.03421725      S-energy:    -0.00000010      T1 diagnostic:  0.00855431
                                                                       D1 diagnostic:  0.01694265

 Adding energy correction from Wij-K(Fij), methodcc=6  factor= 1.0
 
  CCSD correlation energy              -0.272174941407
  MP2-F12 correction (uncoupled)       -0.025211278517
  C*T doubles correction               -0.000842696009
  f12b correction                       0.004262533415


 Total CPU time for triples:      0.29 sec


 RESULTS
 =======

  Reference energy                    -76.057685890090
  F12 singles correction               -0.001060792365

 F12 singles corrections added to reference energy

  New reference energy                -76.058746682455

  F12a singlet correction              -0.023313262219
  F12a triplet correction              -0.002740712307
  F12a total correction                -0.026053974526

 F12a corrections for ansatz F12/3C(FIX) added to CCSD energy
 
  CCSD-F12a singlet pair energy        -0.207625888790
  CCSD-F12a triplet pair energy        -0.090602928580
  CCSD-F12a correlation energy         -0.298228915933

  Triples (T) contribution             -0.008553515390
  Total correlation energy             -0.306782431323

  CCSD-F12a total energy              -76.356975598388
  CCSD[T]-F12a energy                 -76.365808837798
  CCSD-T-F12a energy                  -76.365407409861
 !CCSD(T)-F12a total energy           -76.365529113777

 F12b corrections for ansatz F12/3C(FIX) added to CCSD(T)-F12a energy

  CCSD-F12b singlet pair energy        -0.203675741994
  CCSD-F12b triplet pair energy        -0.090290541961
  CCSD-F12b correlation energy         -0.293966382518

  Triples (T) contribution             -0.008553515390
  Total correlation energy             -0.302519897908

  CCSD-F12b total energy              -76.352713064973
  CCSD[T]-F12b energy                 -76.361546304383
  CCSD-T-F12b energy                  -76.361144876446
 !CCSD(T)-F12b total energy           -76.361266580362

 Timing summary (sec):

 STEP                 CPU(USER)    SYS     CPU(TOT)    WALL
 Transformation          0.07      0.02      0.09      0.18
 CCSD iterations         0.52      0.11      0.63      0.62
 Triples                 0.29      0.01      0.30      0.29
 MP2-F12                 2.75      0.06      2.81      2.82
 F12b energy             0.05      0.00      0.05      0.06

 Program statistics:

 Available memory in ccsd:                49999786
 Min. memory needed in ccsd:                145972
 Max. memory used in ccsd:                  166319
 Max. memory used in cckext:                248663 ( 9 integral passes)



 **********************************************************************************************************************************
 DATASETS  * FILE   NREC   LENGTH (MB)   RECORD NAMES
              1      20       56.28       500      610      700      900      950      970     1000      129      960     1100   
                                          VAR    BASINP    GEOM    SYMINP    ZMAT    AOBASIS   BASIS     P2S    ABASIS      S 
                                         1400     1410     1200     1210     1080     1600     1650     1300     1700     1380   
                                           T        V       H0       H01     AOSYM     SMH    MOLCAS    ERIS     OPER     JKOP   

              2       6        2.97       700     1000      520     2100     7360     7350   
                                         GEOM     BASIS   MCVARS     RHF    F12ABS    EF12   

 PROGRAMS   *        TOTAL   CCSD(T)        HF       INT
 CPU TIMES  *         4.71      3.71      0.27      0.63
 REAL TIME  *         6.45 SEC
 DISK USED  *       124.76 MB      
 **********************************************************************************************************************************

 CCSD(T)-F12/cc-pVTZ-F12 energy=    -76.361266580362

     CCSD(T)-F12        HF-SCF  
    -76.36126658    -76.05768589
 **********************************************************************************************************************************
 Molpro calculation terminated
 Variable memory released
