
 Primary working directories    : /tmp/r2518/14408.maple
 Secondary working directories  : /tmp/r2518/14408.maple
 Wavefunction directory         : /ddn/home1/r2518/wfu/
 Main file repository           : /tmp/r2518/14408.maple/

 SHA1      : d5ffa45e93fdbca01ffc919aa182cfdae0147319
 NAME      : 2015.1.35
 ARCHNAME  : linux/x86_64
 FC        : /opt/intel/composer_xe_2015.1.133/bin/intel64/ifort
 BLASLIB   : -Wl,-_start-group /opt/intel/mkl/lib/intel64/libmkl_intel_ilp64.a /opt/intel/mkl/lib/intel64/libmkl_intel_thread.a /opt/intel/mkl/lib/intel64/libmkl_core.a -Wl,-_end-group
 id        : olemiss

 Nodes     nprocs
 cn061        1

 Using customized tuning parameters: mindgm=1; mindgv=20; mindgc=4; mindgr=1; noblas=0; minvec=7
 default implementation of scratch files=df  

 memory,50,m
 nocompress;
 geomtyp=xyz
 angstrom
 geometry={
 O,-0.05,0.0,-0.0657441568
 H,0.0,0.7574590974,0.5217905143
 H,0.0,-0.7574590974,0.5217905143
 }
 basis=cc-pVTZ-F12
 set,charge=0
 set,spin=0
 hf
 {CCSD(T)-F12}

 Variables initialized (889), CPU time= 0.00 sec
 Commands  initialized (702), CPU time= 0.01 sec, 572 directives.
 Default parameters read. Elapsed time= 0.06 sec

 Checking input...
 Passed
1


                                         ***  PROGRAM SYSTEM MOLPRO  ***
                                       Copyright, TTI GmbH Stuttgart, 2015
                                    Version 2015.1 linked Jul  9 2018 13:16:40


 **********************************************************************************************************************************
 LABEL *                                                                                 
  64 bit serial version                                                                  DATE: 23-Aug-19          TIME: 17:43:57  
 **********************************************************************************************************************************

 SHA1:             d5ffa45e93fdbca01ffc919aa182cfdae0147319
 **********************************************************************************************************************************

 Input parameters for SORTINT:

 COMPRESS =    0.000000
 C_FINAL  =    1.000000
 DEBUG    =   -1.000000
 C_SORT1  =    0.000000
 C_SEWARD =    0.000000
 THRESH   =    0.000000
 IO       =  molpro                                                          
 SPRI     =    0.000000
 SETTING GEOMTYP        =    XYZ
 ZUNIT=ANG
 

 Variable memory set to   50000000 words,  buffer space   230000 words

 SETTING BASIS          =    CC-PVTZ-F12
 SETTING CHARGE         =     0.00000000D+00                                  
 SETTING SPIN           =     0.00000000D+00                                  


 Recomputing integrals since basis changed


 Using spherical harmonics

 Library entry O      S cc-pVTZ-F12          selected for orbital group  1
 Library entry O      P cc-pVTZ-F12          selected for orbital group  1
 Library entry O      D cc-pVTZ-F12          selected for orbital group  1
 Library entry O      F cc-pVTZ-F12          selected for orbital group  1
 Library entry H      S cc-pVTZ-F12          selected for orbital group  2
 Library entry H      P cc-pVTZ-F12          selected for orbital group  2
 Library entry H      D cc-pVTZ-F12          selected for orbital group  2


 PROGRAM * SEWARD (Integral evaluation for generally contracted gaussian basis sets)     Author: Roland Lindh, 1990

 Geometry written to block  1 of record 700


 Point group  Cs  



 ATOMIC COORDINATES

 NR  ATOM    CHARGE       X              Y              Z

   1  O       8.00   -0.094486306    0.000000000   -0.124238451
   2  H       1.00    0.000000000    1.431390245    0.986041166
   3  H       1.00    0.000000000   -1.431390245    0.986041166

 Bond lengths in Bohr (Angstrom)

 1-2  1.813980850  1-3  1.813980850
     ( 0.959917327)     ( 0.959917327)

 Bond angles

  2-1-3  104.20070197

 NUCLEAR CHARGE:                   10
 NUMBER OF PRIMITIVE AOS:         114
 NUMBER OF SYMMETRY AOS:          103
 NUMBER OF CONTRACTIONS:           89   (  53A'  +  36A"  )
 NUMBER OF CORE ORBITALS:           1   (   1A'  +   0A"  )
 NUMBER OF VALENCE ORBITALS:        6   (   4A'  +   2A"  )


 NUCLEAR REPULSION ENERGY    9.16969053

 Eigenvalues of metric

         1 0.216E-03 0.574E-03 0.692E-03 0.711E-03 0.158E-02 0.216E-02 0.398E-02 0.741E-02
         2 0.453E-03 0.796E-03 0.203E-02 0.440E-02 0.848E-02 0.879E-02 0.138E-01 0.174E-01


 Contracted 2-electron integrals neglected if value below      1.0D-11

        3529926. INTEGRALS WRITTEN OUT IN     863 BLOCKS ON RECORD 1290 OF FILE 1


 NUMBER OF SORTED TWO-ELECTRON INTEGRALS:    4105845.     BUFFER LENGTH:  32768
 NUMBER OF SEGMENTS:   1  SEGMENT LENGTH:    4105845      RECORD LENGTH: 524288

 Memory used in sort:       4.66 MW

 SORT1 READ     3529926. AND WROTE     3598924. INTEGRALS IN     11 RECORDS. CPU TIME:     0.11 SEC, REAL TIME:     0.14 SEC
 SORT2 READ     3598924. AND WROTE     4105845. INTEGRALS IN      1 RECORDS. CPU TIME:     0.10 SEC, REAL TIME:     0.12 SEC

 FILE SIZES:   FILE 1:    76.7 MBYTE,  FILE 4:    46.2 MBYTE,   TOTAL:    122.8 MBYTE

 OPERATOR DM      FOR CENTER  0  COORDINATES:    0.000000    0.000000    0.000000


 **********************************************************************************************************************************
 DATASETS  * FILE   NREC   LENGTH (MB)   RECORD NAMES
              1      19       49.94       500      610      700      900      950      970     1000      129      960     1100   
                                          VAR    BASINP    GEOM    SYMINP    ZMAT    AOBASIS   BASIS     P2S    ABASIS      S 
                                         1400     1410     1200     1210     1080     1600     1650     1300     1700   
                                           T        V       H0       H01     AOSYM     SMH    MOLCAS    ERIS     OPER   

 PROGRAMS   *        TOTAL       INT
 CPU TIMES  *         0.60      0.50
 REAL TIME  *         0.86 SEC
 DISK USED  *       123.17 MB      
 **********************************************************************************************************************************


 PROGRAM * RHF-SCF (CLOSED SHELL)       Authors: W. Meyer, H.-J. Werner


 NUMBER OF ELECTRONS:       5+    5-
 CONVERGENCE THRESHOLDS:    1.00E-05 (Density)    1.00E-07 (Energy)
 MAX. NUMBER OF ITERATIONS:       60
 INTERPOLATION TYPE:            DIIS
 INTERPOLATION STEPS:              2 (START)      1 (STEP)
 LEVEL SHIFTS:                  0.00 (CLOSED)  0.00 (OPEN) 



 Orbital guess generated from atomic densities. Full valence occupancy:    5   2

 Molecular orbital dump at record        2100.2

 Initial occupancy:   4   1

 ITERATION    DDIFF          GRAD             ENERGY        2-EL.EN.            DIPOLE MOMENTS         DIIS   ORB.
    1      0.000D+00      0.000D+00       -76.02682814     77.639861    0.09667    0.00000    1.13593    0    start
    2      0.000D+00      0.143D-01       -76.05378999     74.051728    0.05746    0.00000    0.67521    1    diag
    3      0.155D-01      0.892D-02       -76.06483400     75.632729    0.06717    0.00000    0.78935    2    diag
    4      0.529D-02      0.843D-03       -76.06501918     75.541544    0.06686    0.00000    0.78569    3    diag
    5      0.771D-03      0.229D-03       -76.06503783     75.555601    0.06675    0.00000    0.78438    4    diag
    6      0.271D-03      0.439D-04       -76.06503894     75.554676    0.06673    0.00000    0.78409    5    diag
    7      0.764D-04      0.862D-05       -76.06503900     75.554819    0.06672    0.00000    0.78399    6    diag
    8      0.161D-04      0.170D-05       -76.06503900     75.554810    0.06672    0.00000    0.78395    7    diag
    9      0.300D-05      0.213D-06       -76.06503900     75.554797    0.06671    0.00000    0.78394    0    orth

 Final occupancy:   4   1

 !RHF STATE 1.1 Energy                -76.065038998650
 Nuclear energy                         9.16969053
 One-electron energy                 -123.01212783
 Two-electron energy                   37.77739831
 Virial quotient                       -1.00105733
 !RHF STATE 1.1 Dipole moment           0.06671477     0.00000000     0.78394484
 Dipole moment /Debye                   0.16956093     0.00000000     1.99245853

 Orbital energies:

         1.1          2.1          3.1          4.1          5.1          6.1
    -20.565502    -1.351814    -0.585123    -0.510390     0.101801     0.144811

         1.2          2.2          3.2
     -0.715836     0.120835     0.225470

 HOMO      4.1    -0.510390 =     -13.8884eV
 LUMO      5.1     0.101801 =       2.7701eV
 LUMO-HOMO         0.612191 =      16.6586eV


 **********************************************************************************************************************************
 DATASETS  * FILE   NREC   LENGTH (MB)   RECORD NAMES
              1      19       49.94       500      610      700      900      950      970     1000      129      960     1100   
                                          VAR    BASINP    GEOM    SYMINP    ZMAT    AOBASIS   BASIS     P2S    ABASIS      S 
                                         1400     1410     1200     1210     1080     1600     1650     1300     1700   
                                           T        V       H0       H01     AOSYM     SMH    MOLCAS    ERIS     OPER   

              2       4        2.87       700     1000      520     2100   
                                         GEOM     BASIS   MCVARS     RHF  

 PROGRAMS   *        TOTAL        HF       INT
 CPU TIMES  *         0.86      0.26      0.50
 REAL TIME  *         1.16 SEC
 DISK USED  *       123.17 MB      
 **********************************************************************************************************************************


 PROGRAM * CCSD (Closed-shell coupled cluster)     Authors: C. Hampel, H.-J. Werner, 1991, M. Deegan, P.J. Knowles, 1992

                                  CCSD-F12 implementation by  H.-J. Werner, 2007

                   Density fitting integral evaluation by F.R. Manby, 2003,2007, G. Knizia, 2010

 Basis set AUG-CC-PVTZ/JKFIT generated.  Number of basis functions:   196 
 Basis set CC-PVTZ-F12/OPTRI generated.  Number of basis functions:   157 
 Basis set AUG-CC-PVTZ/MP2FIT generated. Number of basis functions:   198 

 Convergence thresholds:  THRVAR = 1.00D-08  THRDEN = 1.00D-06

 CCSD(T)     terms to be evaluated (factor= 1.000)


 Number of core orbitals:           1 (   1   0 )
 Number of closed-shell orbitals:   4 (   3   1 )
 Number of external orbitals:      84 (  49  35 )

 Molecular orbitals read from record     2100.2  Type=RHF/CANONICAL (state 1.1)

 MP2-F12 correlation treatment (H.-J. Werner, 2006)
 ==================================================

 Using MP2-F12 with ansatz 3C(FIX)

 Using projected zeroth-order Hamiltonian (+Z)

 FOCKRIB=T FOCKRIC=T FOCKRIP=T CABSP=T CABSA=T CABSK=T CABSF=T GBC=F EBC=F DMAT=T NOFIK=T NOPAO=1 SOLVE=-1  USEPAO=0
 EXCH_A= T EXCH_B= F EXCH_C= F EXCH_P= F
 
 Geminal basis:    OPTFULL  GEM_TYPE=SLATER  BETA=1.0  NGEM=6

 Optimizing Gaussian exponents for each gem_beta

 Geminal optimization for beta= 1.0000
 Weight function:   m=0, omega= 1.4646

 Augmented Hessian optimization of geminal fit. Trust ratio= 0.40000
 Convergence reached after   2 iterations. Final gradient= 8.41D-16, Step= 4.29D-06, Delta= 1.28D-09
 
 Alpha:                 0.19532     0.81920     2.85917     9.50073    35.69989   197.79328
 Coeff:                 0.27070     0.30552     0.18297     0.10986     0.06810     0.04224
 

 Symmetry turned off. Reference energy:        -76.065038998650

 All pairs explicitly correlated. Number of r12-pairs:           10

 Excluding core orbitals from MO domains
 
 AO(A)-basis ORBITAL           loaded. Number of functions:      89
 RI(R)-basis CC-PVTZ-F12/OPTRI loaded. Number of functions:     157
 DF-basis AUG-CC-PVTZ/JKFIT    loaded. Number of functions:     196

 Screening thresholds:   THRAO=  1.00D-10  THRMO=  1.00D-09  THRPROD=  1.00D-09
                         THRSW=  1.00D-05  THROV=  1.00D-12  THRAOF12=   1.00D-08

 CPU time for Fock operators                      1.07 sec
 
 Construction of ABS:
 Smallest eigenvalue of S          7.87E-04  (threshold= 1.00E-08)
 Ratio eigmin/eigmax               1.31E-04  (threshold= 1.00E-09)
 Smallest eigenvalue of S kept     7.87E-04  (threshold= 7.87E-04, 0 functions deleted, 157 kept)
 
 Construction of CABS:
 Smallest eigenvalue of S          1.87E-06  (threshold= 1.00E-08)
 Ratio eigmin/eigmax               1.87E-06  (threshold= 1.00E-09)
 Smallest eigenvalue of S kept     1.87E-06  (threshold= 1.87E-06, 0 functions deleted, 157 kept)
 
 CPU time for CABS singles                        0.01 sec

 CABS-singles contribution of  -0.00100605 patched into reference energy.
 New reference energy         -76.06604505
 
 AO(A)-basis ORBITAL           loaded. Number of functions:      89
 RI(R)-basis CC-PVTZ-F12/OPTRI loaded. Number of functions:     157
 DF-basis AUG-CC-PVTZ/MP2FIT   loaded. Number of functions:     198

 Screening thresholds:   THRAO=  1.00D-10  THRMO=  1.00D-09  THRPROD=  1.00D-09
                         THRSW=  1.00D-05  THROV=  1.00D-12  THRAOF12=   1.00D-08

 CPU time for 3-index integral evaluation         0.54 sec
 CPU time for first  half transformation          0.05 sec ( 3527.2 MFLOP/sec)
 CPU time for tilde quantities                    0.01 sec (10820.3 MFLOP/sec)
 CPU time for assembly                            0.01 sec (53512.5 MFLOP/sec)
 CPU time for tranop_f12                          0.03 sec (21731.0 MFLOP/sec)
 CPU time for f12 integrals (total)               1.51 sec, Elapsed time:      1.54 sec
 CPU time for f12 matrices (total)                0.01 sec, Elapsed time:      0.02 sec

 Diagonal F12 approximation with fixed coefficients:  TSING= 0.500,  TTRIP= 0.250 (scaled by -1/beta)

 DF-MP2-F12 energy corrections:
 ==============================
 Approx.                                    Singlet             Triplet             Total
 DF-MP2-F12/3*C(DX,FIX)                -0.025254648958     -0.003020877917     -0.028275526875
 DF-MP2-F12/3*C(FIX)                   -0.023458618269     -0.002730723266     -0.026189341535
 DF-MP2-F12/3C(FIX)                    -0.023382730583     -0.002826938643     -0.026209669227

 DF-MP2-F12 correlation energies:
 ================================
 Approx.                                    Singlet             Triplet             Ecorr            Total Energy
 DF-MP2                                -0.173933179071     -0.099267178782     -0.273200357853    -76.339245407608
 DF-MP2-F12/3*C(DX,FIX)                -0.199187828029     -0.102288056699     -0.301475884728    -76.367520934483
 DF-MP2-F12/3*C(FIX)                   -0.197391797340     -0.101997902048     -0.299389699388    -76.365434749142
 DF-MP2-F12/3C(FIX)                    -0.197315909655     -0.102094117425     -0.299410027080    -76.365455076834

 SCS-DF-MP2 energies (F_SING= 1.20000  F_TRIP= 0.62222  F_PARALLEL= 0.33333):
 ============================================================================
 SCS-DF-MP2                            -0.270486059461    -76.336531109215
 SCS-DF-MP2-F12/3*C(DX,FIX)            -0.302671295581    -76.368716345336
 SCS-DF-MP2-F12/3*C(FIX)               -0.300335518083    -76.366380567837
 SCS-DF-MP2-F12/3C(FIX)                -0.300304320206    -76.366349369960

 Symmetry restored.
 Symmetry transformation completed.

 Number of N-1 electron functions:               4
 Number of N-2 electron functions:              10
 Number of singly external CSFs:               182
 Number of doubly external CSFs:             28588
 Total number of CSFs:                       28771

 Length of J-op  integral file:               8.96 MB
 Length of K-op  integral file:              13.55 MB
 Length of 3-ext integral record:             0.00 MB

 Memory could be reduced to 2.31 Mwords without degradation in triples

 Integral transformation finished. Total CPU:   0.07 sec, npass=  1  Memory used:   0.69 MW

 Reference energy:                    -76.06604505

 Adding F12 terms to K(Cij), methodcc=6,  factor= 1.0

 ITER.      SQ.NORM     CORR.ENERGY   TOTAL ENERGY   ENERGY CHANGE        DEN1      VAR(S)    VAR(P)  DIIS     TIME  TIME/IT
   1      1.06152886    -0.27352551   -76.33957056    -0.00028263     0.00550172  0.72D-03  0.96D-03  1  1     2.92     0.07
   2      1.06474129    -0.27325884   -76.33930389     0.00026667    -0.00451850  0.13D-04  0.10D-03  2  2     2.99     0.07
   3      1.06586207    -0.27338341   -76.33942846    -0.00012456    -0.00077793  0.84D-05  0.65D-05  3  3     3.06     0.07
   4      1.06637068    -0.27340442   -76.33944947    -0.00002101    -0.00033967  0.41D-06  0.51D-06  4  4     3.12     0.07
   5      1.06645709    -0.27340287   -76.33944792     0.00000155    -0.00001885  0.12D-06  0.31D-07  5  5     3.19     0.07
   6      1.06648040    -0.27340161   -76.33944666     0.00000126    -0.00000387  0.10D-07  0.31D-08  6  6     3.26     0.07
   7      1.06648640    -0.27340124   -76.33944629     0.00000037    -0.00000137  0.85D-09  0.24D-09  6  1     3.33     0.07
   8      1.06648778    -0.27340130   -76.33944635    -0.00000006    -0.00000001  0.65D-10  0.25D-10  6  2     3.39     0.07

 Norm of t1 vector:      0.03503053      S-energy:    -0.00000011      T1 diagnostic:  0.00875763
                                                                       D1 diagnostic:  0.01751633

 Adding energy correction from Wij-K(Fij), methodcc=6  factor= 1.0
 
  CCSD correlation energy              -0.273401299686
  MP2-F12 correction (uncoupled)       -0.025086879843
  C*T doubles correction               -0.000842515493
  f12b correction                       0.004273638650


 Total CPU time for triples:      0.28 sec


 RESULTS
 =======

  Reference energy                    -76.065038998650
  F12 singles correction               -0.001006051105

 F12 singles corrections added to reference energy

  New reference energy                -76.066045049754

  F12a singlet correction              -0.023208563105
  F12a triplet correction              -0.002720832232
  F12a total correction                -0.025929395336

 F12a corrections for ansatz F12/3C(FIX) added to CCSD energy
 
  CCSD-F12a singlet pair energy        -0.208580946981
  CCSD-F12a triplet pair energy        -0.090749642663
  CCSD-F12a correlation energy         -0.299330695023

  Triples (T) contribution             -0.008733668800
  Total correlation energy             -0.308064363822

  CCSD-F12a total energy              -76.365375744777
  CCSD[T]-F12a energy                 -76.374401722469
  CCSD-T-F12a energy                  -76.373982080548
 !CCSD(T)-F12a total energy           -76.374109413577

 F12b corrections for ansatz F12/3C(FIX) added to CCSD(T)-F12a energy

  CCSD-F12b singlet pair energy        -0.204618815676
  CCSD-F12b triplet pair energy        -0.090438135319
  CCSD-F12b correlation energy         -0.295057056373

  Triples (T) contribution             -0.008733668800
  Total correlation energy             -0.303790725173

  CCSD-F12b total energy              -76.361102106127
  CCSD[T]-F12b energy                 -76.370128083820
  CCSD-T-F12b energy                  -76.369708441898
 !CCSD(T)-F12b total energy           -76.369835774927

 Timing summary (sec):

 STEP                 CPU(USER)    SYS     CPU(TOT)    WALL
 Transformation          0.07      0.01      0.08      0.09
 CCSD iterations         0.58      0.05      0.63      0.66
 Triples                 0.28      0.00      0.28      0.28
 MP2-F12                 2.75      0.08      2.83      2.87
 F12b energy             0.06      0.00      0.06      0.06

 Program statistics:

 Available memory in ccsd:                49999786
 Min. memory needed in ccsd:                137628
 Max. memory used in ccsd:                  157351
 Max. memory used in cckext:                239207 ( 9 integral passes)



 **********************************************************************************************************************************
 DATASETS  * FILE   NREC   LENGTH (MB)   RECORD NAMES
              1      20       55.31       500      610      700      900      950      970     1000      129      960     1100   
                                          VAR    BASINP    GEOM    SYMINP    ZMAT    AOBASIS   BASIS     P2S    ABASIS      S 
                                         1400     1410     1200     1210     1080     1600     1650     1300     1700     1380   
                                           T        V       H0       H01     AOSYM     SMH    MOLCAS    ERIS     OPER     JKOP   

              2       6        2.96       700     1000      520     2100     7360     7350   
                                         GEOM     BASIS   MCVARS     RHF    F12ABS    EF12   

 PROGRAMS   *        TOTAL   CCSD(T)        HF       INT
 CPU TIMES  *         4.63      3.77      0.26      0.50
 REAL TIME  *         5.17 SEC
 DISK USED  *       123.17 MB      
 **********************************************************************************************************************************

 CCSD(T)-F12/cc-pVTZ-F12 energy=    -76.369835774927

     CCSD(T)-F12        HF-SCF  
    -76.36983577    -76.06503900
 **********************************************************************************************************************************
 Molpro calculation terminated
 Variable memory released
