
 Primary working directories    : /tmp/r2518/22862.maple
 Secondary working directories  : /tmp/r2518/22862.maple
 Wavefunction directory         : /ddn/home1/r2518/wfu/
 Main file repository           : /tmp/r2518/22862.maple/

 SHA1      : d5ffa45e93fdbca01ffc919aa182cfdae0147319
 NAME      : 2015.1.35
 ARCHNAME  : linux/x86_64
 FC        : /opt/intel/composer_xe_2015.1.133/bin/intel64/ifort
 BLASLIB   : -Wl,-_start-group /opt/intel/mkl/lib/intel64/libmkl_intel_ilp64.a /opt/intel/mkl/lib/intel64/libmkl_intel_thread.a /opt/intel/mkl/lib/intel64/libmkl_core.a -Wl,-_end-group
 id        : olemiss

 Nodes     nprocs
 cn091        1

 Using customized tuning parameters: mindgm=1; mindgv=20; mindgc=4; mindgr=1; noblas=0; minvec=7
 default implementation of scratch files=df  

 memory,50,m
 nocompress;
 geomtyp=xyz
 angstrom
 geometry={
 O,-0.05,0.0,-0.0657441568
 H,0.0,0.7574590974,0.5217905143
 H,0.0,-0.8074590974,0.5217905143
 }
 basis=cc-pVTZ-F12
 set,charge=0
 set,spin=0
 hf
 {CCSD(T)-F12}

 Variables initialized (889), CPU time= 0.01 sec
 Commands  initialized (702), CPU time= 0.01 sec, 572 directives.
 Default parameters read. Elapsed time= 0.05 sec

 Checking input...
 Passed
1


                                         ***  PROGRAM SYSTEM MOLPRO  ***
                                       Copyright, TTI GmbH Stuttgart, 2015
                                    Version 2015.1 linked Jul  9 2018 13:16:40


 **********************************************************************************************************************************
 LABEL *                                                                                 
  64 bit serial version                                                                  DATE: 28-Aug-19          TIME: 15:37:36  
 **********************************************************************************************************************************

 SHA1:             d5ffa45e93fdbca01ffc919aa182cfdae0147319
 **********************************************************************************************************************************

 Input parameters for SORTINT:

 COMPRESS =    0.000000
 C_FINAL  =    1.000000
 DEBUG    =   -1.000000
 C_SORT1  =    0.000000
 C_SEWARD =    0.000000
 THRESH   =    0.000000
 IO       =  molpro                                                          
 SPRI     =    0.000000
 SETTING GEOMTYP        =    XYZ
 ZUNIT=ANG
 

 Variable memory set to   50000000 words,  buffer space   230000 words

 SETTING BASIS          =    CC-PVTZ-F12
 SETTING CHARGE         =     0.00000000D+00                                  
 SETTING SPIN           =     0.00000000D+00                                  


 Recomputing integrals since basis changed


 Using spherical harmonics

 Library entry O      S cc-pVTZ-F12          selected for orbital group  1
 Library entry O      P cc-pVTZ-F12          selected for orbital group  1
 Library entry O      D cc-pVTZ-F12          selected for orbital group  1
 Library entry O      F cc-pVTZ-F12          selected for orbital group  1
 Library entry H      S cc-pVTZ-F12          selected for orbital group  2
 Library entry H      P cc-pVTZ-F12          selected for orbital group  2
 Library entry H      D cc-pVTZ-F12          selected for orbital group  2


 PROGRAM * SEWARD (Integral evaluation for generally contracted gaussian basis sets)     Author: Roland Lindh, 1990

 Geometry written to block  1 of record 700


 Point group  C1  



 ATOMIC COORDINATES

 NR  ATOM    CHARGE       X              Y              Z

   1  O       8.00   -0.094486306    0.000000000   -0.124238451
   2  H       1.00    0.000000000    1.431390245    0.986041166
   3  H       1.00    0.000000000   -1.525876551    0.986041166

 Bond lengths in Bohr (Angstrom)

 1-2  1.813980850  1-3  1.889430533
     ( 0.959917327)     ( 0.999843580)

 Bond angles

  2-1-3  105.96103783

 NUCLEAR CHARGE:                   10
 NUMBER OF PRIMITIVE AOS:         114
 NUMBER OF SYMMETRY AOS:          103
 NUMBER OF CONTRACTIONS:           89   (  89A   )
 NUMBER OF CORE ORBITALS:           1   (   1A   )
 NUMBER OF VALENCE ORBITALS:        6   (   6A   )


 NUCLEAR REPULSION ENERGY    8.98241995

 Eigenvalues of metric

         1 0.229E-03 0.472E-03 0.580E-03 0.694E-03 0.717E-03 0.816E-03 0.163E-02 0.208E-02


 Contracted 2-electron integrals neglected if value below      1.0D-11

        6941462. INTEGRALS WRITTEN OUT IN    1696 BLOCKS ON RECORD 1290 OF FILE 1


 NUMBER OF SORTED TWO-ELECTRON INTEGRALS:    8022015.     BUFFER LENGTH:  32768
 NUMBER OF SEGMENTS:   1  SEGMENT LENGTH:    8022015      RECORD LENGTH: 524288

 Memory used in sort:       8.58 MW

 SORT1 READ     6941462. AND WROTE     6941462. INTEGRALS IN     20 RECORDS. CPU TIME:     0.11 SEC, REAL TIME:     0.15 SEC
 SORT2 READ     6941462. AND WROTE     8022015. INTEGRALS IN      1 RECORDS. CPU TIME:     0.11 SEC, REAL TIME:     0.16 SEC

 FILE SIZES:   FILE 1:   131.4 MBYTE,  FILE 4:    83.9 MBYTE,   TOTAL:    215.3 MBYTE

 OPERATOR DM      FOR CENTER  0  COORDINATES:    0.000000    0.000000    0.000000


 **********************************************************************************************************************************
 DATASETS  * FILE   NREC   LENGTH (MB)   RECORD NAMES
              1      19       78.76       500      610      700      900      950      970     1000      129      960     1100   
                                          VAR    BASINP    GEOM    SYMINP    ZMAT    AOBASIS   BASIS     P2S    ABASIS      S 
                                         1400     1410     1200     1210     1080     1600     1650     1300     1700   
                                           T        V       H0       H01     AOSYM     SMH    MOLCAS    ERIS     OPER   

 PROGRAMS   *        TOTAL       INT
 CPU TIMES  *         0.72      0.62
 REAL TIME  *         9.44 SEC
 DISK USED  *       215.59 MB      
 **********************************************************************************************************************************


 PROGRAM * RHF-SCF (CLOSED SHELL)       Authors: W. Meyer, H.-J. Werner


 NUMBER OF ELECTRONS:       5+    5-    SPACE SYMMETRY=1    SPIN SYMMETRY: Singlet 
 CONVERGENCE THRESHOLDS:    1.00E-05 (Density)    1.00E-07 (Energy)
 MAX. NUMBER OF ITERATIONS:       60
 INTERPOLATION TYPE:            DIIS
 INTERPOLATION STEPS:              2 (START)      1 (STEP)
 LEVEL SHIFTS:                  0.00 (CLOSED)  0.00 (OPEN) 



 Orbital guess generated from atomic densities. Full valence occupancy:    7

 Molecular orbital dump at record        2100.2

 Initial occupancy:   5

 ITERATION    DDIFF          GRAD             ENERGY        2-EL.EN.            DIPOLE MOMENTS         DIIS   ORB.
    1      0.000D+00      0.000D+00       -76.02342619     77.391402    0.09719   -0.06219    1.14211    0    start
    2      0.000D+00      0.106D-01       -76.05022519     73.728490    0.05694   -0.02395    0.66908    1    diag
    3      0.111D-01      0.675D-02       -76.06181682     75.353784    0.06691   -0.03082    0.78619    2    diag
    4      0.389D-02      0.633D-03       -76.06201486     75.261527    0.06649   -0.02811    0.78134    3    diag
    5      0.562D-03      0.179D-03       -76.06203645     75.275973    0.06633   -0.02699    0.77946    4    diag
    6      0.202D-03      0.359D-04       -76.06203789     75.274867    0.06629   -0.02662    0.77896    5    diag
    7      0.589D-04      0.734D-05       -76.06203796     75.275022    0.06628   -0.02652    0.77879    6    diag
    8      0.132D-04      0.141D-05       -76.06203796     75.275008    0.06627   -0.02651    0.77874    7    diag
    9      0.244D-05      0.192D-06       -76.06203796     75.274994    0.06627   -0.02651    0.77874    0    orth

 Final occupancy:   5

 !RHF STATE 1.1 Energy                -76.062037959995
 Nuclear energy                         8.98241995
 One-electron energy                 -122.68195516
 Two-electron energy                   37.63749725
 Virial quotient                       -1.00201396
 !RHF STATE 1.1 Dipole moment           0.06627192    -0.02650579     0.77874107
 Dipole moment /Debye                   0.16843540    -0.06736659     1.97923272

 Orbital energies:

         1.1          2.1          3.1          4.1          5.1          6.1          7.1
    -20.568047    -1.340942    -0.708457    -0.577738    -0.508296     0.102932     0.120792

 HOMO      5.1    -0.508296 =     -13.8314eV
 LUMO      6.1     0.102932 =       2.8009eV
 LUMO-HOMO         0.611228 =      16.6324eV


 **********************************************************************************************************************************
 DATASETS  * FILE   NREC   LENGTH (MB)   RECORD NAMES
              1      19       78.76       500      610      700      900      950      970     1000      129      960     1100   
                                          VAR    BASINP    GEOM    SYMINP    ZMAT    AOBASIS   BASIS     P2S    ABASIS      S 
                                         1400     1410     1200     1210     1080     1600     1650     1300     1700   
                                           T        V       H0       H01     AOSYM     SMH    MOLCAS    ERIS     OPER   

              2       4        2.95       700     1000      520     2100   
                                         GEOM     BASIS   MCVARS     RHF  

 PROGRAMS   *        TOTAL        HF       INT
 CPU TIMES  *         1.34      0.61      0.62
 REAL TIME  *        11.68 SEC
 DISK USED  *       215.59 MB      
 **********************************************************************************************************************************


 PROGRAM * CCSD (Closed-shell coupled cluster)     Authors: C. Hampel, H.-J. Werner, 1991, M. Deegan, P.J. Knowles, 1992

                                  CCSD-F12 implementation by  H.-J. Werner, 2007

                   Density fitting integral evaluation by F.R. Manby, 2003,2007, G. Knizia, 2010

 Basis set AUG-CC-PVTZ/JKFIT generated.  Number of basis functions:   196 
 Basis set CC-PVTZ-F12/OPTRI generated.  Number of basis functions:   157 
 Basis set AUG-CC-PVTZ/MP2FIT generated. Number of basis functions:   198 

 Convergence thresholds:  THRVAR = 1.00D-08  THRDEN = 1.00D-06

 CCSD(T)     terms to be evaluated (factor= 1.000)


 Number of core orbitals:           1 (   1 )
 Number of closed-shell orbitals:   4 (   4 )
 Number of external orbitals:      84 (  84 )

 Molecular orbitals read from record     2100.2  Type=RHF/CANONICAL (state 1.1)

 MP2-F12 correlation treatment (H.-J. Werner, 2006)
 ==================================================

 Using MP2-F12 with ansatz 3C(FIX)

 Using projected zeroth-order Hamiltonian (+Z)

 FOCKRIB=T FOCKRIC=T FOCKRIP=T CABSP=T CABSA=T CABSK=T CABSF=T GBC=F EBC=F DMAT=T NOFIK=T NOPAO=1 SOLVE=-1  USEPAO=0
 EXCH_A= T EXCH_B= F EXCH_C= F EXCH_P= F
 
 Geminal basis:    OPTFULL  GEM_TYPE=SLATER  BETA=1.0  NGEM=6

 Optimizing Gaussian exponents for each gem_beta

 Geminal optimization for beta= 1.0000
 Weight function:   m=0, omega= 1.4646

 Augmented Hessian optimization of geminal fit. Trust ratio= 0.40000
 Convergence reached after   2 iterations. Final gradient= 8.41D-16, Step= 4.29D-06, Delta= 1.28D-09
 
 Alpha:                 0.19532     0.81920     2.85917     9.50073    35.69989   197.79328
 Coeff:                 0.27070     0.30552     0.18297     0.10986     0.06810     0.04224
 

 All pairs explicitly correlated. Number of r12-pairs:           10

 Excluding core orbitals from MO domains
 
 AO(A)-basis ORBITAL           loaded. Number of functions:      89
 RI(R)-basis CC-PVTZ-F12/OPTRI loaded. Number of functions:     157
 DF-basis AUG-CC-PVTZ/JKFIT    loaded. Number of functions:     196

 Screening thresholds:   THRAO=  1.00D-10  THRMO=  1.00D-09  THRPROD=  1.00D-09
                         THRSW=  1.00D-05  THROV=  1.00D-12  THRAOF12=   1.00D-08

 CPU time for Fock operators                      0.36 sec
 
 Construction of ABS:
 Smallest eigenvalue of S          8.22E-04  (threshold= 1.00E-08)
 Ratio eigmin/eigmax               1.39E-04  (threshold= 1.00E-09)
 Smallest eigenvalue of S kept     8.22E-04  (threshold= 8.22E-04, 0 functions deleted, 157 kept)
 
 Construction of CABS:
 Smallest eigenvalue of S          2.08E-06  (threshold= 1.00E-08)
 Ratio eigmin/eigmax               2.08E-06  (threshold= 1.00E-09)
 Smallest eigenvalue of S kept     2.08E-06  (threshold= 2.08E-06, 0 functions deleted, 157 kept)
 
 CPU time for CABS singles                        0.01 sec

 CABS-singles contribution of  -0.00096862 patched into reference energy.
 New reference energy         -76.06300658
 
 AO(A)-basis ORBITAL           loaded. Number of functions:      89
 RI(R)-basis CC-PVTZ-F12/OPTRI loaded. Number of functions:     157
 DF-basis AUG-CC-PVTZ/MP2FIT   loaded. Number of functions:     198

 Screening thresholds:   THRAO=  1.00D-10  THRMO=  1.00D-09  THRPROD=  1.00D-09
                         THRSW=  1.00D-05  THROV=  1.00D-12  THRAOF12=   1.00D-08

 CPU time for 3-index integral evaluation         0.45 sec
 CPU time for first  half transformation          0.04 sec ( 4409.0 MFLOP/sec)
 CPU time for fitting                             0.01 sec ( 8185.8 MFLOP/sec)
 CPU time for tilde quantities                    0.02 sec ( 5410.2 MFLOP/sec)
 CPU time for tranop_f12                          0.02 sec (32596.5 MFLOP/sec)
 CPU time for f12 integrals (total)               0.59 sec, Elapsed time:      0.63 sec
 CPU time for f12 matrices (total)                0.01 sec, Elapsed time:      0.00 sec

 Diagonal F12 approximation with fixed coefficients:  TSING= 0.500,  TTRIP= 0.250 (scaled by -1/beta)

 DF-MP2-F12 energy corrections:
 ==============================
 Approx.                                    Singlet             Triplet             Total
 DF-MP2-F12/3*C(DX,FIX)                -0.025153457786     -0.003000900062     -0.028154357847
 DF-MP2-F12/3*C(FIX)                   -0.023388330545     -0.002716314613     -0.026104645158
 DF-MP2-F12/3C(FIX)                    -0.023313951107     -0.002812309893     -0.026126260999

 DF-MP2-F12 correlation energies:
 ================================
 Approx.                                    Singlet             Triplet             Ecorr            Total Energy
 DF-MP2                                -0.174927846567     -0.099749907361     -0.274677753929    -76.337684334742
 DF-MP2-F12/3*C(DX,FIX)                -0.200081304353     -0.102750807423     -0.302832111776    -76.365838692589
 DF-MP2-F12/3*C(FIX)                   -0.198316177113     -0.102466221974     -0.300782399087    -76.363788979900
 DF-MP2-F12/3C(FIX)                    -0.198241797674     -0.102562217254     -0.300804014928    -76.363810595741

 SCS-DF-MP2 energies (F_SING= 1.20000  F_TRIP= 0.62222  F_PARALLEL= 0.33333):
 ============================================================================
 SCS-DF-MP2                            -0.271980024906    -76.334986605719
 SCS-DF-MP2-F12/3*C(DX,FIX)            -0.304031400954    -76.367037981767
 SCS-DF-MP2-F12/3*C(FIX)               -0.301736172875    -76.364742753688
 SCS-DF-MP2-F12/3C(FIX)                -0.301706647945    -76.364713228758
 Symmetry transformation completed.

 Number of N-1 electron functions:               4
 Number of N-2 electron functions:              10
 Number of singly external CSFs:               336
 Number of doubly external CSFs:             56616
 Total number of CSFs:                       56953

 Length of J-op  integral file:               9.11 MB
 Length of K-op  integral file:              14.70 MB
 Length of 3-ext integral record:             0.00 MB

 Memory could be reduced to 4.35 Mwords without degradation in triples

 Integral transformation finished. Total CPU:   0.14 sec, npass=  1  Memory used:   2.09 MW

 Reference energy:                    -76.06300658

 Adding F12 terms to K(Cij), methodcc=6,  factor= 1.0

 ITER.      SQ.NORM     CORR.ENERGY   TOTAL ENERGY   ENERGY CHANGE        DEN1      VAR(S)    VAR(P)  DIIS     TIME  TIME/IT
   1      1.06274689    -0.27481678   -76.33782336    -0.00009577     0.00591251  0.77D-03  0.10D-02  1  1     1.30     0.13
   2      1.06615716    -0.27456396   -76.33757054     0.00025282    -0.00469101  0.14D-04  0.11D-03  2  2     1.42     0.13
   3      1.06738291    -0.27470007   -76.33770665    -0.00013612    -0.00082673  0.92D-05  0.73D-05  3  3     1.54     0.13
   4      1.06794595    -0.27472267   -76.33772925    -0.00002259    -0.00036635  0.45D-06  0.57D-06  4  4     1.66     0.13
   5      1.06804191    -0.27472112   -76.33772770     0.00000155    -0.00002106  0.13D-06  0.36D-07  5  5     1.78     0.13
   6      1.06806783    -0.27471980   -76.33772638     0.00000132    -0.00000437  0.11D-07  0.36D-08  6  6     1.91     0.13
   7      1.06807445    -0.27471941   -76.33772599     0.00000038    -0.00000150  0.10D-08  0.28D-09  6  1     2.02     0.13
   8      1.06807597    -0.27471948   -76.33772606    -0.00000006    -0.00000001  0.85D-10  0.32D-10  6  2     2.14     0.13

 Norm of t1 vector:      0.03627784      S-energy:    -0.00000012      T1 diagnostic:  0.00906946
                                                                       D1 diagnostic:  0.01817126

 Adding energy correction from Wij-K(Fij), methodcc=6  factor= 1.0
 
  CCSD correlation energy              -0.274719475445
  MP2-F12 correction (uncoupled)       -0.024999779665
  C*T doubles correction               -0.000841317362
  f12b correction                       0.004285018180


 Total CPU time for triples:      0.64 sec


 RESULTS
 =======

  Reference energy                    -76.062037959995
  F12 singles correction               -0.000968620818

 F12 singles corrections added to reference energy

  New reference energy                -76.063006580813

  F12a singlet correction              -0.023134957458
  F12a triplet correction              -0.002706139569
  F12a total correction                -0.025841097027

 F12a corrections for ansatz F12/3C(FIX) added to CCSD energy
 
  CCSD-F12a singlet pair energy        -0.209726294619
  CCSD-F12a triplet pair energy        -0.090834157301
  CCSD-F12a correlation energy         -0.300560572473

  Triples (T) contribution             -0.008926757536
  Total correlation energy             -0.309487330009

  CCSD-F12a total energy              -76.363567153286
  CCSD[T]-F12a energy                 -76.372802320380
  CCSD-T-F12a energy                  -76.372358735516
 !CCSD(T)-F12a total energy           -76.372493910822

 F12b corrections for ansatz F12/3C(FIX) added to CCSD(T)-F12a energy

  CCSD-F12b singlet pair energy        -0.205751904238
  CCSD-F12b triplet pair energy        -0.090523529501
  CCSD-F12b correlation energy         -0.296275554293

  Triples (T) contribution             -0.008926757536
  Total correlation energy             -0.305202311829

  CCSD-F12b total energy              -76.359282135106
  CCSD[T]-F12b energy                 -76.368517302200
  CCSD-T-F12b energy                  -76.368073717336
 !CCSD(T)-F12b total energy           -76.368208892642

 Timing summary (sec):

 STEP                 CPU(USER)    SYS     CPU(TOT)    WALL
 Transformation          0.15      0.04      0.19      0.37
 CCSD iterations         1.00      0.09      1.09      1.10
 Triples                 0.64      0.03      0.67      0.66
 MP2-F12                 0.99      0.04      1.03      1.04
 F12b energy             0.09      0.01      0.10      0.10

 Program statistics:

 Available memory in ccsd:                49999786
 Min. memory needed in ccsd:                269472
 Max. memory used in ccsd:                  308684
 Max. memory used in cckext:                227914 ( 9 integral passes)



 **********************************************************************************************************************************
 DATASETS  * FILE   NREC   LENGTH (MB)   RECORD NAMES
              1      20       89.44       500      610      700      900      950      970     1000      129      960     1100   
                                          VAR    BASINP    GEOM    SYMINP    ZMAT    AOBASIS   BASIS     P2S    ABASIS      S 
                                         1400     1410     1200     1210     1080     1600     1650     1300     1700     1380   
                                           T        V       H0       H01     AOSYM     SMH    MOLCAS    ERIS     OPER     JKOP   

              2       6        3.11       700     1000      520     2100     7360     7350   
                                         GEOM     BASIS   MCVARS     RHF    F12ABS    EF12   

 PROGRAMS   *        TOTAL   CCSD(T)        HF       INT
 CPU TIMES  *         4.26      2.91      0.61      0.62
 REAL TIME  *        25.74 SEC
 DISK USED  *       215.59 MB      
 **********************************************************************************************************************************

 CCSD(T)-F12/cc-pVTZ-F12 energy=    -76.368208892642

     CCSD(T)-F12        HF-SCF  
    -76.36820889    -76.06203796
 **********************************************************************************************************************************
 Molpro calculation terminated
 Variable memory released
