
 Primary working directories    : /tmp/r2518/22882.maple
 Secondary working directories  : /tmp/r2518/22882.maple
 Wavefunction directory         : /ddn/home1/r2518/wfu/
 Main file repository           : /tmp/r2518/22882.maple/

 SHA1      : d5ffa45e93fdbca01ffc919aa182cfdae0147319
 NAME      : 2015.1.35
 ARCHNAME  : linux/x86_64
 FC        : /opt/intel/composer_xe_2015.1.133/bin/intel64/ifort
 BLASLIB   : -Wl,-_start-group /opt/intel/mkl/lib/intel64/libmkl_intel_ilp64.a /opt/intel/mkl/lib/intel64/libmkl_intel_thread.a /opt/intel/mkl/lib/intel64/libmkl_core.a -Wl,-_end-group
 id        : olemiss

 Nodes     nprocs
 cn004        1

 Using customized tuning parameters: mindgm=1; mindgv=20; mindgc=4; mindgr=1; noblas=0; minvec=7
 default implementation of scratch files=df  

 memory,50,m
 nocompress;
 geomtyp=xyz
 angstrom
 geometry={
 O,0.0,0.0,-0.0657441568
 H,0.0,0.7074590973999999,0.4717905143
 H,0.0,-0.7574590974,0.5217905143
 }
 basis=cc-pVTZ-F12
 set,charge=0
 set,spin=0
 hf
 {CCSD(T)-F12}

 Variables initialized (889), CPU time= 0.00 sec
 Commands  initialized (702), CPU time= 0.01 sec, 572 directives.
 Default parameters read. Elapsed time= 0.45 sec

 Checking input...
 Passed
1


                                         ***  PROGRAM SYSTEM MOLPRO  ***
                                       Copyright, TTI GmbH Stuttgart, 2015
                                    Version 2015.1 linked Jul  9 2018 13:16:40


 **********************************************************************************************************************************
 LABEL *                                                                                 
  64 bit serial version                                                                  DATE: 28-Aug-19          TIME: 15:37:38  
 **********************************************************************************************************************************

 SHA1:             d5ffa45e93fdbca01ffc919aa182cfdae0147319
 **********************************************************************************************************************************

 Input parameters for SORTINT:

 COMPRESS =    0.000000
 C_FINAL  =    1.000000
 DEBUG    =   -1.000000
 C_SORT1  =    0.000000
 C_SEWARD =    0.000000
 THRESH   =    0.000000
 IO       =  molpro                                                          
 SPRI     =    0.000000
 SETTING GEOMTYP        =    XYZ
 ZUNIT=ANG
 

 Variable memory set to   50000000 words,  buffer space   230000 words

 SETTING BASIS          =    CC-PVTZ-F12
 SETTING CHARGE         =     0.00000000D+00                                  
 SETTING SPIN           =     0.00000000D+00                                  


 Recomputing integrals since basis changed


 Using spherical harmonics

 Library entry O      S cc-pVTZ-F12          selected for orbital group  1
 Library entry O      P cc-pVTZ-F12          selected for orbital group  1
 Library entry O      D cc-pVTZ-F12          selected for orbital group  1
 Library entry O      F cc-pVTZ-F12          selected for orbital group  1
 Library entry H      S cc-pVTZ-F12          selected for orbital group  2
 Library entry H      P cc-pVTZ-F12          selected for orbital group  2
 Library entry H      D cc-pVTZ-F12          selected for orbital group  2


 PROGRAM * SEWARD (Integral evaluation for generally contracted gaussian basis sets)     Author: Roland Lindh, 1990

 Geometry written to block  1 of record 700


 Point group  Cs  



 ATOMIC COORDINATES

 NR  ATOM    CHARGE       X              Y              Z

   1  O       8.00    0.000000000    0.000000000   -0.124238451
   2  H       1.00    0.000000000    1.336903938    0.891554860
   3  H       1.00    0.000000000   -1.431390245    0.986041166

 Bond lengths in Bohr (Angstrom)

 1-2  1.679031921  1-3  1.811518385
     ( 0.888505429)     ( 0.958614247)

 Bond angles

  2-1-3  104.97256971

 NUCLEAR CHARGE:                   10
 NUMBER OF PRIMITIVE AOS:         114
 NUMBER OF SYMMETRY AOS:          103
 NUMBER OF CONTRACTIONS:           89   (  61A'  +  28A"  )
 NUMBER OF CORE ORBITALS:           1   (   1A'  +   0A"  )
 NUMBER OF VALENCE ORBITALS:        6   (   5A'  +   1A"  )


 NUCLEAR REPULSION ENERGY    9.54185821

 Eigenvalues of metric

         1 0.185E-03 0.416E-03 0.561E-03 0.700E-03 0.767E-03 0.150E-02 0.189E-02 0.201E-02
         2 0.686E-03 0.628E-02 0.935E-02 0.415E-01 0.824E-01 0.878E-01 0.116E+00 0.179E+00


 Contracted 2-electron integrals neglected if value below      1.0D-11

        3676672. INTEGRALS WRITTEN OUT IN     898 BLOCKS ON RECORD 1290 OF FILE 1


 NUMBER OF SORTED TWO-ELECTRON INTEGRALS:    4174745.     BUFFER LENGTH:  32768
 NUMBER OF SEGMENTS:   1  SEGMENT LENGTH:    4174745      RECORD LENGTH: 524288

 Memory used in sort:       4.73 MW

 SORT1 READ     3676672. AND WROTE     3739788. INTEGRALS IN     11 RECORDS. CPU TIME:     0.12 SEC, REAL TIME:     8.88 SEC
 SORT2 READ     3739788. AND WROTE     4174745. INTEGRALS IN      1 RECORDS. CPU TIME:     0.11 SEC, REAL TIME:     8.89 SEC

 FILE SIZES:   FILE 1:    79.0 MBYTE,  FILE 4:    46.2 MBYTE,   TOTAL:    125.2 MBYTE

 OPERATOR DM      FOR CENTER  0  COORDINATES:    0.000000    0.000000    0.000000


 **********************************************************************************************************************************
 DATASETS  * FILE   NREC   LENGTH (MB)   RECORD NAMES
              1      19       51.17       500      610      700      900      950      970     1000      129      960     1100   
                                          VAR    BASINP    GEOM    SYMINP    ZMAT    AOBASIS   BASIS     P2S    ABASIS      S 
                                         1400     1410     1200     1210     1080     1600     1650     1300     1700   
                                           T        V       H0       H01     AOSYM     SMH    MOLCAS    ERIS     OPER   

 PROGRAMS   *        TOTAL       INT
 CPU TIMES  *         0.74      0.63
 REAL TIME  *        33.57 SEC
 DISK USED  *       125.48 MB      
 **********************************************************************************************************************************


 PROGRAM * RHF-SCF (CLOSED SHELL)       Authors: W. Meyer, H.-J. Werner


 NUMBER OF ELECTRONS:       5+    5-
 CONVERGENCE THRESHOLDS:    1.00E-05 (Density)    1.00E-07 (Energy)
 MAX. NUMBER OF ITERATIONS:       60
 INTERPOLATION TYPE:            DIIS
 INTERPOLATION STEPS:              2 (START)      1 (STEP)
 LEVEL SHIFTS:                  0.00 (CLOSED)  0.00 (OPEN) 



 Orbital guess generated from atomic densities. Full valence occupancy:    6   1

 Molecular orbital dump at record        2100.2

 Initial occupancy:   4   1

 ITERATION    DDIFF          GRAD             ENERGY        2-EL.EN.            DIPOLE MOMENTS         DIIS   ORB.
    1      0.000D+00      0.000D+00       -76.02422488     78.203177    0.00000   -0.06972    1.08852    0    start
    2      0.000D+00      0.137D-01       -76.05157884     74.674373    0.00000   -0.01998    0.66920    1    diag
    3      0.151D-01      0.828D-02       -76.06187642     76.193721    0.00000   -0.02769    0.77229    2    diag
    4      0.495D-02      0.785D-03       -76.06205248     76.106873    0.00000   -0.02391    0.77066    3    diag
    5      0.743D-03      0.204D-03       -76.06206816     76.119483    0.00000   -0.02248    0.76998    4    diag
    6      0.244D-03      0.375D-04       -76.06206901     76.118754    0.00000   -0.02205    0.76993    5    diag
    7      0.680D-04      0.707D-05       -76.06206905     76.118869    0.00000   -0.02194    0.76986    6    diag
    8      0.137D-04      0.147D-05       -76.06206905     76.118864    0.00000   -0.02193    0.76983    7    diag
    9      0.240D-05      0.188D-06       -76.06206905     76.118853    0.00000   -0.02193    0.76983    0    orth

 Final occupancy:   4   1

 !RHF STATE 1.1 Energy                -76.062069049887
 Nuclear energy                         9.54185821
 One-electron energy                 -123.66335380
 Two-electron energy                   38.05942654
 Virial quotient                       -0.99891565
 !RHF STATE 1.1 Dipole moment           0.00000000    -0.02192502     0.76982846
 Dipole moment /Debye                   0.00000000    -0.05572418     1.95658062

 Orbital energies:

         1.1          2.1          3.1          4.1          5.1          6.1
    -20.558329    -1.372163    -0.738137    -0.590189     0.100106     0.119569

         1.2          2.2          3.2
     -0.513433     0.144834     0.481706

 HOMO      1.2    -0.513433 =     -13.9712eV
 LUMO      5.1     0.100106 =       2.7240eV
 LUMO-HOMO         0.613539 =      16.6953eV


 **********************************************************************************************************************************
 DATASETS  * FILE   NREC   LENGTH (MB)   RECORD NAMES
              1      19       51.17       500      610      700      900      950      970     1000      129      960     1100   
                                          VAR    BASINP    GEOM    SYMINP    ZMAT    AOBASIS   BASIS     P2S    ABASIS      S 
                                         1400     1410     1200     1210     1080     1600     1650     1300     1700   
                                           T        V       H0       H01     AOSYM     SMH    MOLCAS    ERIS     OPER   

              2       4        2.88       700     1000      520     2100   
                                         GEOM     BASIS   MCVARS     RHF  

 PROGRAMS   *        TOTAL        HF       INT
 CPU TIMES  *         1.00      0.26      0.63
 REAL TIME  *        37.21 SEC
 DISK USED  *       125.48 MB      
 **********************************************************************************************************************************


 PROGRAM * CCSD (Closed-shell coupled cluster)     Authors: C. Hampel, H.-J. Werner, 1991, M. Deegan, P.J. Knowles, 1992

                                  CCSD-F12 implementation by  H.-J. Werner, 2007

                   Density fitting integral evaluation by F.R. Manby, 2003,2007, G. Knizia, 2010

 Basis set AUG-CC-PVTZ/JKFIT generated.  Number of basis functions:   196 
 Basis set CC-PVTZ-F12/OPTRI generated.  Number of basis functions:   157 
 Basis set AUG-CC-PVTZ/MP2FIT generated. Number of basis functions:   198 

 Convergence thresholds:  THRVAR = 1.00D-08  THRDEN = 1.00D-06

 CCSD(T)     terms to be evaluated (factor= 1.000)


 Number of core orbitals:           1 (   1   0 )
 Number of closed-shell orbitals:   4 (   3   1 )
 Number of external orbitals:      84 (  57  27 )

 Molecular orbitals read from record     2100.2  Type=RHF/CANONICAL (state 1.1)

 MP2-F12 correlation treatment (H.-J. Werner, 2006)
 ==================================================

 Using MP2-F12 with ansatz 3C(FIX)

 Using projected zeroth-order Hamiltonian (+Z)

 FOCKRIB=T FOCKRIC=T FOCKRIP=T CABSP=T CABSA=T CABSK=T CABSF=T GBC=F EBC=F DMAT=T NOFIK=T NOPAO=1 SOLVE=-1  USEPAO=0
 EXCH_A= T EXCH_B= F EXCH_C= F EXCH_P= F
 
 Geminal basis:    OPTFULL  GEM_TYPE=SLATER  BETA=1.0  NGEM=6

 Optimizing Gaussian exponents for each gem_beta

 Geminal optimization for beta= 1.0000
 Weight function:   m=0, omega= 1.4646

 Augmented Hessian optimization of geminal fit. Trust ratio= 0.40000
 Convergence reached after   2 iterations. Final gradient= 8.12D-16, Step= 4.39D-06, Delta= 1.28D-09
 
 Alpha:                 0.19532     0.81920     2.85917     9.50073    35.69989   197.79328
 Coeff:                 0.27070     0.30552     0.18297     0.10986     0.06810     0.04224
 

 Symmetry turned off. Reference energy:        -76.062069049887

 All pairs explicitly correlated. Number of r12-pairs:           10

 Excluding core orbitals from MO domains
 
 AO(A)-basis ORBITAL           loaded. Number of functions:      89
 RI(R)-basis CC-PVTZ-F12/OPTRI loaded. Number of functions:     157
 DF-basis AUG-CC-PVTZ/JKFIT    loaded. Number of functions:     196

 Screening thresholds:   THRAO=  1.00D-10  THRMO=  1.00D-09  THRPROD=  1.00D-09
                         THRSW=  1.00D-05  THROV=  1.00D-12  THRAOF12=   1.00D-08

 CPU time for Fock operators                      0.92 sec
 
 Construction of ABS:
 Smallest eigenvalue of S          6.43E-04  (threshold= 1.00E-08)
 Ratio eigmin/eigmax               1.06E-04  (threshold= 1.00E-09)
 Smallest eigenvalue of S kept     6.43E-04  (threshold= 6.43E-04, 0 functions deleted, 157 kept)
 
 Construction of CABS:
 Smallest eigenvalue of S          1.49E-06  (threshold= 1.00E-08)
 Ratio eigmin/eigmax               1.49E-06  (threshold= 1.00E-09)
 Smallest eigenvalue of S kept     1.49E-06  (threshold= 1.49E-06, 0 functions deleted, 157 kept)
 
 CPU time for CABS singles                        0.01 sec

 CABS-singles contribution of  -0.00108534 patched into reference energy.
 New reference energy         -76.06315439
 
 AO(A)-basis ORBITAL           loaded. Number of functions:      89
 RI(R)-basis CC-PVTZ-F12/OPTRI loaded. Number of functions:     157
 DF-basis AUG-CC-PVTZ/MP2FIT   loaded. Number of functions:     198

 Screening thresholds:   THRAO=  1.00D-10  THRMO=  1.00D-09  THRPROD=  1.00D-09
                         THRSW=  1.00D-05  THROV=  1.00D-12  THRAOF12=   1.00D-08

 CPU time for 3-index integral evaluation         0.62 sec
 CPU time for first  half transformation          0.04 sec ( 4409.0 MFLOP/sec)
 CPU time for tilde quantities                    0.01 sec (10820.3 MFLOP/sec)
 CPU time for assembly                            0.05 sec (10702.5 MFLOP/sec)
 CPU time for tranop_f12                          0.04 sec (16298.2 MFLOP/sec)
 CPU time for f12 integrals (total)               1.62 sec, Elapsed time:      1.64 sec
 CPU time for f12 matrices (total)                0.01 sec, Elapsed time:      0.02 sec

 Diagonal F12 approximation with fixed coefficients:  TSING= 0.500,  TTRIP= 0.250 (scaled by -1/beta)

 DF-MP2-F12 energy corrections:
 ==============================
 Approx.                                    Singlet             Triplet             Total
 DF-MP2-F12/3*C(DX,FIX)                -0.025489786779     -0.003062847008     -0.028552633787
 DF-MP2-F12/3*C(FIX)                   -0.023629837989     -0.002760314854     -0.026390152842
 DF-MP2-F12/3C(FIX)                    -0.023549129085     -0.002856626331     -0.026405755416

 DF-MP2-F12 correlation energies:
 ================================
 Approx.                                    Singlet             Triplet             Ecorr            Total Energy
 DF-MP2                                -0.172025200458     -0.098242683799     -0.270267884256    -76.333422272866
 DF-MP2-F12/3*C(DX,FIX)                -0.197514987237     -0.101305530807     -0.298820518044    -76.361974906653
 DF-MP2-F12/3*C(FIX)                   -0.195655038447     -0.101002998652     -0.296658037099    -76.359812425708
 DF-MP2-F12/3C(FIX)                    -0.195574329543     -0.101099310130     -0.296673639673    -76.359828028282

 SCS-DF-MP2 energies (F_SING= 1.20000  F_TRIP= 0.62222  F_PARALLEL= 0.33333):
 ============================================================================
 SCS-DF-MP2                            -0.267559021580    -76.330713410189
 SCS-DF-MP2-F12/3*C(DX,FIX)            -0.300052537187    -76.363206925796
 SCS-DF-MP2-F12/3*C(FIX)               -0.297632356408    -76.360786745018
 SCS-DF-MP2-F12/3C(FIX)                -0.297595432865    -76.360749821474

 Symmetry restored.
 Symmetry transformation completed.

 Number of N-1 electron functions:               4
 Number of N-2 electron functions:              10
 Number of singly external CSFs:               198
 Number of doubly external CSFs:             29292
 Total number of CSFs:                       29491

 Length of J-op  integral file:               8.97 MB
 Length of K-op  integral file:              13.62 MB
 Length of 3-ext integral record:             0.00 MB

 Memory could be reduced to 2.37 Mwords without degradation in triples

 Integral transformation finished. Total CPU:   0.07 sec, npass=  1  Memory used:   0.62 MW

 Reference energy:                    -76.06315439

 Adding F12 terms to K(Cij), methodcc=6,  factor= 1.0

 ITER.      SQ.NORM     CORR.ENERGY   TOTAL ENERGY   ENERGY CHANGE        DEN1      VAR(S)    VAR(P)  DIIS     TIME  TIME/IT
   1      1.05933938    -0.27099480   -76.33414919    -0.00068500     0.00469911  0.64D-03  0.86D-03  1  1     2.88     0.13
   2      1.06223071    -0.27071472   -76.33386911     0.00028007    -0.00420903  0.11D-04  0.86D-04  2  2     2.94     0.11
   3      1.06319485    -0.27082205   -76.33397644    -0.00010733    -0.00070131  0.72D-05  0.53D-05  3  3     3.01     0.10
   4      1.06362271    -0.27084073   -76.33399512    -0.00001869    -0.00029694  0.35D-06  0.41D-06  4  4     3.08     0.10
   5      1.06369538    -0.27083920   -76.33399359     0.00000153    -0.00001556  0.95D-07  0.24D-07  5  5     3.14     0.09
   6      1.06371480    -0.27083808   -76.33399247     0.00000112    -0.00000314  0.81D-08  0.24D-08  6  6     3.22     0.10
   7      1.06371987    -0.27083775   -76.33399214     0.00000033    -0.00000119  0.66D-09  0.18D-09  6  1     3.28     0.09
   8      1.06372102    -0.27083781   -76.33399220    -0.00000005    -0.00000000  0.46D-10  0.18D-10  6  2     3.35     0.09

 Norm of t1 vector:      0.03281176      S-energy:    -0.00000008      T1 diagnostic:  0.00820294
                                                                       D1 diagnostic:  0.01619566

 Adding energy correction from Wij-K(Fij), methodcc=6  factor= 1.0
 
  CCSD correlation energy              -0.270837808436
  MP2-F12 correction (uncoupled)       -0.025293174691
  C*T doubles correction               -0.000842729724
  f12b correction                       0.004255133078


 Total CPU time for triples:      0.38 sec


 RESULTS
 =======

  Reference energy                    -76.062069049887
  F12 singles correction               -0.001085338722

 F12 singles corrections added to reference energy

  New reference energy                -76.063154388609

  F12a singlet correction              -0.023385145842
  F12a triplet correction              -0.002750758574
  F12a total correction                -0.026135904415

 F12a corrections for ansatz F12/3C(FIX) added to CCSD energy
 
  CCSD-F12a singlet pair energy        -0.206493491756
  CCSD-F12a triplet pair energy        -0.090480138056
  CCSD-F12a correlation energy         -0.296973712851

  Triples (T) contribution             -0.008369946072
  Total correlation energy             -0.305343658923

  CCSD-F12a total energy              -76.360128101460
  CCSD[T]-F12a energy                 -76.368761594456
  CCSD-T-F12a energy                  -76.368384743297
 !CCSD(T)-F12a total energy           -76.368498047532

 F12b corrections for ansatz F12/3C(FIX) added to CCSD(T)-F12a energy

  CCSD-F12b singlet pair energy        -0.202551548688
  CCSD-F12b triplet pair energy        -0.090166948047
  CCSD-F12b correlation energy         -0.292718579773

  Triples (T) contribution             -0.008369946072
  Total correlation energy             -0.301088525845

  CCSD-F12b total energy              -76.355872968382
  CCSD[T]-F12b energy                 -76.364506461378
  CCSD-T-F12b energy                  -76.364129610220
 !CCSD(T)-F12b total energy           -76.364242914454

 Timing summary (sec):

 STEP                 CPU(USER)    SYS     CPU(TOT)    WALL
 Transformation          0.07      0.03      0.10      1.04
 CCSD iterations         0.56      0.09      0.65      0.78
 Triples                 0.38      0.01      0.39      0.39
 MP2-F12                 2.72      0.04      2.76      4.35
 F12b energy             0.05      0.01      0.06      0.06

 Program statistics:

 Available memory in ccsd:                49999786
 Min. memory needed in ccsd:                145972
 Max. memory used in ccsd:                  166319
 Max. memory used in cckext:                248663 ( 9 integral passes)



 **********************************************************************************************************************************
 DATASETS  * FILE   NREC   LENGTH (MB)   RECORD NAMES
              1      20       56.67       500      610      700      900      950      970     1000      129      960     1100   
                                          VAR    BASINP    GEOM    SYMINP    ZMAT    AOBASIS   BASIS     P2S    ABASIS      S 
                                         1400     1410     1200     1210     1080     1600     1650     1300     1700     1380   
                                           T        V       H0       H01     AOSYM     SMH    MOLCAS    ERIS     OPER     JKOP   

              2       6        2.97       700     1000      520     2100     7360     7350   
                                         GEOM     BASIS   MCVARS     RHF    F12ABS    EF12   

 PROGRAMS   *        TOTAL   CCSD(T)        HF       INT
 CPU TIMES  *         4.82      3.82      0.26      0.63
 REAL TIME  *        54.92 SEC
 DISK USED  *       125.48 MB      
 **********************************************************************************************************************************

 CCSD(T)-F12/cc-pVTZ-F12 energy=    -76.364242914454

     CCSD(T)-F12        HF-SCF  
    -76.36424291    -76.06206905
 **********************************************************************************************************************************
 Molpro calculation terminated
 Variable memory released
