
 Primary working directories    : /tmp/r2518/14515.maple
 Secondary working directories  : /tmp/r2518/14515.maple
 Wavefunction directory         : /ddn/home1/r2518/wfu/
 Main file repository           : /tmp/r2518/14515.maple/

 SHA1      : d5ffa45e93fdbca01ffc919aa182cfdae0147319
 NAME      : 2015.1.35
 ARCHNAME  : linux/x86_64
 FC        : /opt/intel/composer_xe_2015.1.133/bin/intel64/ifort
 BLASLIB   : -Wl,-_start-group /opt/intel/mkl/lib/intel64/libmkl_intel_ilp64.a /opt/intel/mkl/lib/intel64/libmkl_intel_thread.a /opt/intel/mkl/lib/intel64/libmkl_core.a -Wl,-_end-group
 id        : olemiss

 Nodes     nprocs
 cn059        1

 Using customized tuning parameters: mindgm=1; mindgv=20; mindgc=4; mindgr=1; noblas=0; minvec=7
 default implementation of scratch files=df  

 memory,50,m
 nocompress;
 geomtyp=xyz
 angstrom
 geometry={
 O,0.0,0.0,-0.0657441568
 H,0.0,0.7574590974000001,0.5717905143
 H,0.0,-0.7574590974,0.5217905143
 }
 basis=cc-pVTZ-F12
 set,charge=0
 set,spin=0
 hf
 {CCSD(T)-F12}

 Variables initialized (889), CPU time= 0.01 sec
 Commands  initialized (702), CPU time= 0.01 sec, 572 directives.
 Default parameters read. Elapsed time= 0.06 sec

 Checking input...
 Passed
1


                                         ***  PROGRAM SYSTEM MOLPRO  ***
                                       Copyright, TTI GmbH Stuttgart, 2015
                                    Version 2015.1 linked Jul  9 2018 13:16:40


 **********************************************************************************************************************************
 LABEL *                                                                                 
  64 bit serial version                                                                  DATE: 24-Aug-19          TIME: 15:23:50  
 **********************************************************************************************************************************

 SHA1:             d5ffa45e93fdbca01ffc919aa182cfdae0147319
 **********************************************************************************************************************************

 Input parameters for SORTINT:

 COMPRESS =    0.000000
 C_FINAL  =    1.000000
 DEBUG    =   -1.000000
 C_SORT1  =    0.000000
 C_SEWARD =    0.000000
 THRESH   =    0.000000
 IO       =  molpro                                                          
 SPRI     =    0.000000
 SETTING GEOMTYP        =    XYZ
 ZUNIT=ANG
 

 Variable memory set to   50000000 words,  buffer space   230000 words

 SETTING BASIS          =    CC-PVTZ-F12
 SETTING CHARGE         =     0.00000000D+00                                  
 SETTING SPIN           =     0.00000000D+00                                  


 Recomputing integrals since basis changed


 Using spherical harmonics

 Library entry O      S cc-pVTZ-F12          selected for orbital group  1
 Library entry O      P cc-pVTZ-F12          selected for orbital group  1
 Library entry O      D cc-pVTZ-F12          selected for orbital group  1
 Library entry O      F cc-pVTZ-F12          selected for orbital group  1
 Library entry H      S cc-pVTZ-F12          selected for orbital group  2
 Library entry H      P cc-pVTZ-F12          selected for orbital group  2
 Library entry H      D cc-pVTZ-F12          selected for orbital group  2


 PROGRAM * SEWARD (Integral evaluation for generally contracted gaussian basis sets)     Author: Roland Lindh, 1990

 Geometry written to block  1 of record 700


 Point group  Cs  



 ATOMIC COORDINATES

 NR  ATOM    CHARGE       X              Y              Z

   1  O       8.00    0.000000000    0.000000000   -0.124238451
   2  H       1.00    0.000000000    1.431390245    1.080527473
   3  H       1.00    0.000000000   -1.431390245    0.986041166

 Bond lengths in Bohr (Angstrom)

 1-2  1.870919283  1-3  1.811518385
     ( 0.990047848)     ( 0.958614247)

 Bond angles

  2-1-3  102.11401818

 NUCLEAR CHARGE:                   10
 NUMBER OF PRIMITIVE AOS:         114
 NUMBER OF SYMMETRY AOS:          103
 NUMBER OF CONTRACTIONS:           89   (  61A'  +  28A"  )
 NUMBER OF CORE ORBITALS:           1   (   1A'  +   0A"  )
 NUMBER OF VALENCE ORBITALS:        6   (   5A'  +   1A"  )


 NUCLEAR REPULSION ENERGY    9.04127829

 Eigenvalues of metric

         1 0.226E-03 0.475E-03 0.580E-03 0.717E-03 0.810E-03 0.161E-02 0.207E-02 0.221E-02
         2 0.693E-03 0.895E-02 0.111E-01 0.453E-01 0.842E-01 0.890E-01 0.135E+00 0.193E+00


 Contracted 2-electron integrals neglected if value below      1.0D-11

        3665631. INTEGRALS WRITTEN OUT IN     896 BLOCKS ON RECORD 1290 OF FILE 1


 NUMBER OF SORTED TWO-ELECTRON INTEGRALS:    4174745.     BUFFER LENGTH:  32768
 NUMBER OF SEGMENTS:   1  SEGMENT LENGTH:    4174745      RECORD LENGTH: 524288

 Memory used in sort:       4.73 MW

 SORT1 READ     3665631. AND WROTE     3728747. INTEGRALS IN     11 RECORDS. CPU TIME:     0.12 SEC, REAL TIME:     0.17 SEC
 SORT2 READ     3728747. AND WROTE     4174745. INTEGRALS IN      1 RECORDS. CPU TIME:     0.12 SEC, REAL TIME:     0.14 SEC

 FILE SIZES:   FILE 1:    78.9 MBYTE,  FILE 4:    46.2 MBYTE,   TOTAL:    125.0 MBYTE

 OPERATOR DM      FOR CENTER  0  COORDINATES:    0.000000    0.000000    0.000000


 **********************************************************************************************************************************
 DATASETS  * FILE   NREC   LENGTH (MB)   RECORD NAMES
              1      19       51.11       500      610      700      900      950      970     1000      129      960     1100   
                                          VAR    BASINP    GEOM    SYMINP    ZMAT    AOBASIS   BASIS     P2S    ABASIS      S 
                                         1400     1410     1200     1210     1080     1600     1650     1300     1700   
                                           T        V       H0       H01     AOSYM     SMH    MOLCAS    ERIS     OPER   

 PROGRAMS   *        TOTAL       INT
 CPU TIMES  *         0.75      0.64
 REAL TIME  *         1.28 SEC
 DISK USED  *       125.35 MB      
 **********************************************************************************************************************************


 PROGRAM * RHF-SCF (CLOSED SHELL)       Authors: W. Meyer, H.-J. Werner


 NUMBER OF ELECTRONS:       5+    5-
 CONVERGENCE THRESHOLDS:    1.00E-05 (Density)    1.00E-07 (Energy)
 MAX. NUMBER OF ITERATIONS:       60
 INTERPOLATION TYPE:            DIIS
 INTERPOLATION STEPS:              2 (START)      1 (STEP)
 LEVEL SHIFTS:                  0.00 (CLOSED)  0.00 (OPEN) 



 Orbital guess generated from atomic densities. Full valence occupancy:    6   1

 Molecular orbital dump at record        2100.2

 Initial occupancy:   4   1

 ITERATION    DDIFF          GRAD             ENERGY        2-EL.EN.            DIPOLE MOMENTS         DIIS   ORB.
    1      0.000D+00      0.000D+00       -76.02387440     77.444815    0.00000    0.00997    1.18199    0    start
    2      0.000D+00      0.137D-01       -76.05104820     73.806481    0.00000   -0.00422    0.68843    1    diag
    3      0.147D-01      0.866D-02       -76.06264599     75.425168    0.00000   -0.00273    0.81205    2    diag
    4      0.514D-02      0.817D-03       -76.06284069     75.332439    0.00000   -0.00465    0.80728    3    diag
    5      0.737D-03      0.229D-03       -76.06286218     75.347493    0.00000   -0.00547    0.80558    4    diag
    6      0.269D-03      0.458D-04       -76.06286357     75.346419    0.00000   -0.00575    0.80516    5    diag
    7      0.765D-04      0.932D-05       -76.06286364     75.346567    0.00000   -0.00582    0.80503    6    diag
    8      0.167D-04      0.171D-05       -76.06286364     75.346554    0.00000   -0.00583    0.80499    7    diag
    9      0.311D-05      0.211D-06       -76.06286364     75.346539    0.00000   -0.00583    0.80499    0    orth

 Final occupancy:   4   1

 !RHF STATE 1.1 Energy                -76.062863643880
 Nuclear energy                         9.04127829
 One-electron energy                 -122.77741166
 Two-electron energy                   37.67326973
 Virial quotient                       -1.00168190
 !RHF STATE 1.1 Dipole moment           0.00000000    -0.00582830     0.80499038
 Dipole moment /Debye                   0.00000000    -0.01481309     2.04594746

 Orbital energies:

         1.1          2.1          3.1          4.1          5.1          6.1
    -20.568876    -1.346215    -0.704146    -0.586314     0.101425     0.121938

         1.2          2.2          3.2
     -0.509883     0.145383     0.481879

 HOMO      1.2    -0.509883 =     -13.8746eV
 LUMO      5.1     0.101425 =       2.7599eV
 LUMO-HOMO         0.611309 =      16.6346eV


 **********************************************************************************************************************************
 DATASETS  * FILE   NREC   LENGTH (MB)   RECORD NAMES
              1      19       51.11       500      610      700      900      950      970     1000      129      960     1100   
                                          VAR    BASINP    GEOM    SYMINP    ZMAT    AOBASIS   BASIS     P2S    ABASIS      S 
                                         1400     1410     1200     1210     1080     1600     1650     1300     1700   
                                           T        V       H0       H01     AOSYM     SMH    MOLCAS    ERIS     OPER   

              2       4        2.88       700     1000      520     2100   
                                         GEOM     BASIS   MCVARS     RHF  

 PROGRAMS   *        TOTAL        HF       INT
 CPU TIMES  *         1.04      0.29      0.64
 REAL TIME  *         1.65 SEC
 DISK USED  *       125.35 MB      
 **********************************************************************************************************************************


 PROGRAM * CCSD (Closed-shell coupled cluster)     Authors: C. Hampel, H.-J. Werner, 1991, M. Deegan, P.J. Knowles, 1992

                                  CCSD-F12 implementation by  H.-J. Werner, 2007

                   Density fitting integral evaluation by F.R. Manby, 2003,2007, G. Knizia, 2010

 Basis set AUG-CC-PVTZ/JKFIT generated.  Number of basis functions:   196 
 Basis set CC-PVTZ-F12/OPTRI generated.  Number of basis functions:   157 
 Basis set AUG-CC-PVTZ/MP2FIT generated. Number of basis functions:   198 

 Convergence thresholds:  THRVAR = 1.00D-08  THRDEN = 1.00D-06

 CCSD(T)     terms to be evaluated (factor= 1.000)


 Number of core orbitals:           1 (   1   0 )
 Number of closed-shell orbitals:   4 (   3   1 )
 Number of external orbitals:      84 (  57  27 )

 Molecular orbitals read from record     2100.2  Type=RHF/CANONICAL (state 1.1)

 MP2-F12 correlation treatment (H.-J. Werner, 2006)
 ==================================================

 Using MP2-F12 with ansatz 3C(FIX)

 Using projected zeroth-order Hamiltonian (+Z)

 FOCKRIB=T FOCKRIC=T FOCKRIP=T CABSP=T CABSA=T CABSK=T CABSF=T GBC=F EBC=F DMAT=T NOFIK=T NOPAO=1 SOLVE=-1  USEPAO=0
 EXCH_A= T EXCH_B= F EXCH_C= F EXCH_P= F
 
 Geminal basis:    OPTFULL  GEM_TYPE=SLATER  BETA=1.0  NGEM=6

 Optimizing Gaussian exponents for each gem_beta

 Geminal optimization for beta= 1.0000
 Weight function:   m=0, omega= 1.4646

 Augmented Hessian optimization of geminal fit. Trust ratio= 0.40000
 Convergence reached after   2 iterations. Final gradient= 8.41D-16, Step= 4.29D-06, Delta= 1.28D-09
 
 Alpha:                 0.19532     0.81920     2.85917     9.50073    35.69989   197.79328
 Coeff:                 0.27070     0.30552     0.18297     0.10986     0.06810     0.04224
 

 Symmetry turned off. Reference energy:        -76.062863643880

 All pairs explicitly correlated. Number of r12-pairs:           10

 Excluding core orbitals from MO domains
 
 AO(A)-basis ORBITAL           loaded. Number of functions:      89
 RI(R)-basis CC-PVTZ-F12/OPTRI loaded. Number of functions:     157
 DF-basis AUG-CC-PVTZ/JKFIT    loaded. Number of functions:     196

 Screening thresholds:   THRAO=  1.00D-10  THRMO=  1.00D-09  THRPROD=  1.00D-09
                         THRSW=  1.00D-05  THROV=  1.00D-12  THRAOF12=   1.00D-08

 CPU time for Fock operators                      1.05 sec
 
 Construction of ABS:
 Smallest eigenvalue of S          8.06E-04  (threshold= 1.00E-08)
 Ratio eigmin/eigmax               1.35E-04  (threshold= 1.00E-09)
 Smallest eigenvalue of S kept     8.06E-04  (threshold= 8.06E-04, 0 functions deleted, 157 kept)
 
 Construction of CABS:
 Smallest eigenvalue of S          2.01E-06  (threshold= 1.00E-08)
 Ratio eigmin/eigmax               2.01E-06  (threshold= 1.00E-09)
 Smallest eigenvalue of S kept     2.01E-06  (threshold= 2.01E-06, 0 functions deleted, 157 kept)
 
 CPU time for CABS singles                        0.01 sec

 CABS-singles contribution of  -0.00098110 patched into reference energy.
 New reference energy         -76.06384474
 
 AO(A)-basis ORBITAL           loaded. Number of functions:      89
 RI(R)-basis CC-PVTZ-F12/OPTRI loaded. Number of functions:     157
 DF-basis AUG-CC-PVTZ/MP2FIT   loaded. Number of functions:     198

 Screening thresholds:   THRAO=  1.00D-10  THRMO=  1.00D-09  THRPROD=  1.00D-09
                         THRSW=  1.00D-05  THROV=  1.00D-12  THRAOF12=   1.00D-08

 CPU time for 3-index integral evaluation         0.54 sec
 CPU time for first  half transformation          0.05 sec ( 3527.2 MFLOP/sec)
 CPU time for second half transformation          0.01 sec (  493.4 MFLOP/sec)
 CPU time for fitting                             0.01 sec ( 8185.8 MFLOP/sec)
 CPU time for tilde quantities                    0.01 sec (10820.3 MFLOP/sec)
 CPU time for assembly                            0.01 sec (53512.5 MFLOP/sec)
 CPU time for tranop_f12                          0.02 sec (32596.5 MFLOP/sec)
 CPU time for f12 integrals (total)               1.54 sec, Elapsed time:      1.58 sec
 CPU time for f12 matrices (total)                0.02 sec, Elapsed time:      0.02 sec

 Diagonal F12 approximation with fixed coefficients:  TSING= 0.500,  TTRIP= 0.250 (scaled by -1/beta)

 DF-MP2-F12 energy corrections:
 ==============================
 Approx.                                    Singlet             Triplet             Total
 DF-MP2-F12/3*C(DX,FIX)                -0.025170305117     -0.003007371563     -0.028177676680
 DF-MP2-F12/3*C(FIX)                   -0.023395702204     -0.002721784181     -0.026117486384
 DF-MP2-F12/3C(FIX)                    -0.023319555071     -0.002817776570     -0.026137331642

 DF-MP2-F12 correlation energies:
 ================================
 Approx.                                    Singlet             Triplet             Ecorr            Total Energy
 DF-MP2                                -0.174800270934     -0.099728602505     -0.274528873440    -76.338373615701
 DF-MP2-F12/3*C(DX,FIX)                -0.199970576051     -0.102735974069     -0.302706550120    -76.366551292381
 DF-MP2-F12/3*C(FIX)                   -0.198195973138     -0.102450386686     -0.300646359824    -76.364491102085
 DF-MP2-F12/3C(FIX)                    -0.198119826006     -0.102546379075     -0.300666205081    -76.364510947342

 SCS-DF-MP2 energies (F_SING= 1.20000  F_TRIP= 0.62222  F_PARALLEL= 0.33333):
 ============================================================================
 SCS-DF-MP2                            -0.271813677791    -76.335658420052
 SCS-DF-MP2-F12/3*C(DX,FIX)            -0.303889297348    -76.367734039609
 SCS-DF-MP2-F12/3*C(FIX)               -0.301582075037    -76.365426817298
 SCS-DF-MP2-F12/3C(FIX)                -0.301550427076    -76.365395169337

 Symmetry restored.
 Symmetry transformation completed.

 Number of N-1 electron functions:               4
 Number of N-2 electron functions:              10
 Number of singly external CSFs:               198
 Number of doubly external CSFs:             29292
 Total number of CSFs:                       29491

 Length of J-op  integral file:               8.97 MB
 Length of K-op  integral file:              13.62 MB
 Length of 3-ext integral record:             0.00 MB

 Memory could be reduced to 2.37 Mwords without degradation in triples

 Integral transformation finished. Total CPU:   0.07 sec, npass=  1  Memory used:   0.62 MW

 Reference energy:                    -76.06384474

 Adding F12 terms to K(Cij), methodcc=6,  factor= 1.0

 ITER.      SQ.NORM     CORR.ENERGY   TOTAL ENERGY   ENERGY CHANGE        DEN1      VAR(S)    VAR(P)  DIIS     TIME  TIME/IT
   1      1.06251756    -0.27468353   -76.33852827    -0.00011191     0.00586635  0.76D-03  0.10D-02  1  1     2.93     0.07
   2      1.06589086    -0.27442211   -76.33826686     0.00026141    -0.00466516  0.14D-04  0.11D-03  2  2     2.99     0.07
   3      1.06709477    -0.27455543   -76.33840017    -0.00013332    -0.00081557  0.91D-05  0.71D-05  3  3     3.06     0.08
   4      1.06764820    -0.27457760   -76.33842234    -0.00002216    -0.00036214  0.44D-06  0.56D-06  4  4     3.13     0.08
   5      1.06774191    -0.27457602   -76.33842076     0.00000158    -0.00002061  0.13D-06  0.35D-07  5  5     3.20     0.08
   6      1.06776713    -0.27457469   -76.33841943     0.00000133    -0.00000421  0.11D-07  0.35D-08  6  6     3.27     0.08
   7      1.06777357    -0.27457430   -76.33841904     0.00000039    -0.00000146  0.96D-09  0.27D-09  6  1     3.33     0.08
   8      1.06777505    -0.27457436   -76.33841910    -0.00000006    -0.00000001  0.74D-10  0.29D-10  6  2     3.39     0.08

 Norm of t1 vector:      0.03614515      S-energy:    -0.00000012      T1 diagnostic:  0.00903629
                                                                       D1 diagnostic:  0.01815675

 Adding energy correction from Wij-K(Fij), methodcc=6  factor= 1.0
 
  CCSD correlation energy              -0.274574355068
  MP2-F12 correction (uncoupled)       -0.025011937733
  C*T doubles correction               -0.000842481419
  f12b correction                       0.004280499583


 Total CPU time for triples:      0.30 sec


 RESULTS
 =======

  Reference energy                    -76.062863643880
  F12 singles correction               -0.000981098381

 F12 singles corrections added to reference energy

  New reference energy                -76.063844742261

  F12a singlet correction              -0.023142915264
  F12a triplet correction              -0.002711503888
  F12a total correction                -0.025854419152

 F12a corrections for ansatz F12/3C(FIX) added to CCSD energy
 
  CCSD-F12a singlet pair energy        -0.209553415917
  CCSD-F12a triplet pair energy        -0.090875239787
  CCSD-F12a correlation energy         -0.300428774220

  Triples (T) contribution             -0.008897537990
  Total correlation energy             -0.309326312210

  CCSD-F12a total energy              -76.364273516481
  CCSD[T]-F12a energy                 -76.373477504728
  CCSD-T-F12a energy                  -76.373036555396
 !CCSD(T)-F12a total energy           -76.373171054471

 F12b corrections for ansatz F12/3C(FIX) added to CCSD(T)-F12a energy

  CCSD-F12b singlet pair energy        -0.205583785424
  CCSD-F12b triplet pair energy        -0.090564370697
  CCSD-F12b correlation energy         -0.296148274637

  Triples (T) contribution             -0.008897537990
  Total correlation energy             -0.305045812627

  CCSD-F12b total energy              -76.359993016898
  CCSD[T]-F12b energy                 -76.369197005145
  CCSD-T-F12b energy                  -76.368756055814
 !CCSD(T)-F12b total energy           -76.368890554888

 Timing summary (sec):

 STEP                 CPU(USER)    SYS     CPU(TOT)    WALL
 Transformation          0.07      0.02      0.09      0.13
 CCSD iterations         0.56      0.10      0.66      0.66
 Triples                 0.30      0.01      0.31      0.31
 MP2-F12                 2.76      0.08      2.84      2.84
 F12b energy             0.05      0.01      0.06      0.06

 Program statistics:

 Available memory in ccsd:                49999786
 Min. memory needed in ccsd:                145972
 Max. memory used in ccsd:                  166319
 Max. memory used in cckext:                248663 ( 9 integral passes)



 **********************************************************************************************************************************
 DATASETS  * FILE   NREC   LENGTH (MB)   RECORD NAMES
              1      20       56.61       500      610      700      900      950      970     1000      129      960     1100   
                                          VAR    BASINP    GEOM    SYMINP    ZMAT    AOBASIS   BASIS     P2S    ABASIS      S 
                                         1400     1410     1200     1210     1080     1600     1650     1300     1700     1380   
                                           T        V       H0       H01     AOSYM     SMH    MOLCAS    ERIS     OPER     JKOP   

              2       6        2.97       700     1000      520     2100     7360     7350   
                                         GEOM     BASIS   MCVARS     RHF    F12ABS    EF12   

 PROGRAMS   *        TOTAL   CCSD(T)        HF       INT
 CPU TIMES  *         4.82      3.78      0.29      0.64
 REAL TIME  *         5.87 SEC
 DISK USED  *       125.35 MB      
 **********************************************************************************************************************************

 CCSD(T)-F12/cc-pVTZ-F12 energy=    -76.368890554888

     CCSD(T)-F12        HF-SCF  
    -76.36889055    -76.06286364
 **********************************************************************************************************************************
 Molpro calculation terminated
 Variable memory released
