
 Primary working directories    : /tmp/r2518/22892.maple
 Secondary working directories  : /tmp/r2518/22892.maple
 Wavefunction directory         : /ddn/home1/r2518/wfu/
 Main file repository           : /tmp/r2518/22892.maple/

 SHA1      : d5ffa45e93fdbca01ffc919aa182cfdae0147319
 NAME      : 2015.1.35
 ARCHNAME  : linux/x86_64
 FC        : /opt/intel/composer_xe_2015.1.133/bin/intel64/ifort
 BLASLIB   : -Wl,-_start-group /opt/intel/mkl/lib/intel64/libmkl_intel_ilp64.a /opt/intel/mkl/lib/intel64/libmkl_intel_thread.a /opt/intel/mkl/lib/intel64/libmkl_core.a -Wl,-_end-group
 id        : olemiss

 Nodes     nprocs
 cn004        1

 Using customized tuning parameters: mindgm=1; mindgv=20; mindgc=4; mindgr=1; noblas=0; minvec=7
 default implementation of scratch files=df  

 memory,50,m
 nocompress;
 geomtyp=xyz
 angstrom
 geometry={
 O,-0.05,0.05,-0.0657441568
 H,0.0,0.7574590974,0.5217905143
 H,0.0,-0.7574590974,0.5217905143
 }
 basis=cc-pVTZ-F12
 set,charge=0
 set,spin=0
 hf
 {CCSD(T)-F12}

 Variables initialized (889), CPU time= 0.00 sec
 Commands  initialized (702), CPU time= 0.01 sec, 572 directives.
 Default parameters read. Elapsed time= 0.44 sec

 Checking input...
 Passed
1


                                         ***  PROGRAM SYSTEM MOLPRO  ***
                                       Copyright, TTI GmbH Stuttgart, 2015
                                    Version 2015.1 linked Jul  9 2018 13:16:40


 **********************************************************************************************************************************
 LABEL *                                                                                 
  64 bit serial version                                                                  DATE: 28-Aug-19          TIME: 15:37:38  
 **********************************************************************************************************************************

 SHA1:             d5ffa45e93fdbca01ffc919aa182cfdae0147319
 **********************************************************************************************************************************

 Input parameters for SORTINT:

 COMPRESS =    0.000000
 C_FINAL  =    1.000000
 DEBUG    =   -1.000000
 C_SORT1  =    0.000000
 C_SEWARD =    0.000000
 THRESH   =    0.000000
 IO       =  molpro                                                          
 SPRI     =    0.000000
 SETTING GEOMTYP        =    XYZ
 ZUNIT=ANG
 

 Variable memory set to   50000000 words,  buffer space   230000 words

 SETTING BASIS          =    CC-PVTZ-F12
 SETTING CHARGE         =     0.00000000D+00                                  
 SETTING SPIN           =     0.00000000D+00                                  


 Recomputing integrals since basis changed


 Using spherical harmonics

 Library entry O      S cc-pVTZ-F12          selected for orbital group  1
 Library entry O      P cc-pVTZ-F12          selected for orbital group  1
 Library entry O      D cc-pVTZ-F12          selected for orbital group  1
 Library entry O      F cc-pVTZ-F12          selected for orbital group  1
 Library entry H      S cc-pVTZ-F12          selected for orbital group  2
 Library entry H      P cc-pVTZ-F12          selected for orbital group  2
 Library entry H      D cc-pVTZ-F12          selected for orbital group  2


 PROGRAM * SEWARD (Integral evaluation for generally contracted gaussian basis sets)     Author: Roland Lindh, 1990

 Geometry written to block  1 of record 700


 Point group  C1  



 ATOMIC COORDINATES

 NR  ATOM    CHARGE       X              Y              Z

   1  O       8.00   -0.094486306    0.094486306   -0.124238451
   2  H       1.00    0.000000000    1.431390245    0.986041166
   3  H       1.00    0.000000000   -1.431390245    0.986041166

 Bond lengths in Bohr (Angstrom)

 1-2  1.740390942  1-3  1.889430533
     ( 0.920975225)     ( 0.999843580)

 Bond angles

  2-1-3  104.04990066

 NUCLEAR CHARGE:                   10
 NUMBER OF PRIMITIVE AOS:         114
 NUMBER OF SYMMETRY AOS:          103
 NUMBER OF CONTRACTIONS:           89   (  89A   )
 NUMBER OF CORE ORBITALS:           1   (   1A   )
 NUMBER OF VALENCE ORBITALS:        6   (   6A   )


 NUCLEAR REPULSION ENERGY    9.18005911

 Eigenvalues of metric

         1 0.211E-03 0.460E-03 0.575E-03 0.691E-03 0.710E-03 0.797E-03 0.158E-02 0.200E-02


 Contracted 2-electron integrals neglected if value below      1.0D-11

        6940700. INTEGRALS WRITTEN OUT IN    1695 BLOCKS ON RECORD 1290 OF FILE 1


 NUMBER OF SORTED TWO-ELECTRON INTEGRALS:    8022015.     BUFFER LENGTH:  32768
 NUMBER OF SEGMENTS:   1  SEGMENT LENGTH:    8022015      RECORD LENGTH: 524288

 Memory used in sort:       8.58 MW

 SORT1 READ     6940700. AND WROTE     6940700. INTEGRALS IN     20 RECORDS. CPU TIME:     0.19 SEC, REAL TIME:    21.36 SEC
 SORT2 READ     6940700. AND WROTE     8022015. INTEGRALS IN      1 RECORDS. CPU TIME:     0.14 SEC, REAL TIME:     0.22 SEC

 FILE SIZES:   FILE 1:   131.3 MBYTE,  FILE 4:    83.9 MBYTE,   TOTAL:    215.2 MBYTE

 OPERATOR DM      FOR CENTER  0  COORDINATES:    0.000000    0.000000    0.000000


 **********************************************************************************************************************************
 DATASETS  * FILE   NREC   LENGTH (MB)   RECORD NAMES
              1      19       78.75       500      610      700      900      950      970     1000      129      960     1100   
                                          VAR    BASINP    GEOM    SYMINP    ZMAT    AOBASIS   BASIS     P2S    ABASIS      S 
                                         1400     1410     1200     1210     1080     1600     1650     1300     1700   
                                           T        V       H0       H01     AOSYM     SMH    MOLCAS    ERIS     OPER   

 PROGRAMS   *        TOTAL       INT
 CPU TIMES  *         0.88      0.76
 REAL TIME  *        43.25 SEC
 DISK USED  *       215.53 MB      
 **********************************************************************************************************************************


 PROGRAM * RHF-SCF (CLOSED SHELL)       Authors: W. Meyer, H.-J. Werner


 NUMBER OF ELECTRONS:       5+    5-    SPACE SYMMETRY=1    SPIN SYMMETRY: Singlet 
 CONVERGENCE THRESHOLDS:    1.00E-05 (Density)    1.00E-07 (Energy)
 MAX. NUMBER OF ITERATIONS:       60
 INTERPOLATION TYPE:            DIIS
 INTERPOLATION STEPS:              2 (START)      1 (STEP)
 LEVEL SHIFTS:                  0.00 (CLOSED)  0.00 (OPEN) 



 Orbital guess generated from atomic densities. Full valence occupancy:    7

 Molecular orbital dump at record        2100.2

 Initial occupancy:   5

 ITERATION    DDIFF          GRAD             ENERGY        2-EL.EN.            DIPOLE MOMENTS         DIIS   ORB.
    1      0.000D+00      0.000D+00       -76.02318815     77.673337    0.09680   -0.12206    1.13746    0    start
    2      0.000D+00      0.107D-01       -76.05045183     74.048812    0.05744   -0.04717    0.67496    1    diag
    3      0.112D-01      0.668D-02       -76.06170882     75.642710    0.06721   -0.06063    0.78972    2    diag
    4      0.386D-02      0.630D-03       -76.06190287     75.552245    0.06688   -0.05565    0.78593    3    diag
    5      0.564D-03      0.175D-03       -76.06192339     75.566370    0.06676   -0.05362    0.78448    4    diag
    6      0.200D-03      0.349D-04       -76.06192472     75.565360    0.06673   -0.05298    0.78414    5    diag
    7      0.571D-04      0.715D-05       -76.06192478     75.565498    0.06672   -0.05281    0.78401    6    diag
    8      0.124D-04      0.136D-05       -76.06192479     75.565486    0.06672   -0.05278    0.78397    7    diag
    9      0.232D-05      0.180D-06       -76.06192479     75.565473    0.06672   -0.05278    0.78397    0    orth

 Final occupancy:   5

 !RHF STATE 1.1 Energy                -76.061924786549
 Nuclear energy                         9.18005911
 One-electron energy                 -123.02472018
 Two-electron energy                   37.78273629
 Virial quotient                       -1.00089525
 !RHF STATE 1.1 Dipole moment           0.06671667    -0.05278140     0.78396718
 Dipole moment /Debye                   0.16956576    -0.13414815     1.99251531

 Orbital energies:

         1.1          2.1          3.1          4.1          5.1          6.1          7.1
    -20.565318    -1.353185    -0.715814    -0.584779    -0.510528     0.101302     0.120919

 HOMO      5.1    -0.510528 =     -13.8922eV
 LUMO      6.1     0.101302 =       2.7566eV
 LUMO-HOMO         0.611830 =      16.6487eV


 **********************************************************************************************************************************
 DATASETS  * FILE   NREC   LENGTH (MB)   RECORD NAMES
              1      19       78.75       500      610      700      900      950      970     1000      129      960     1100   
                                          VAR    BASINP    GEOM    SYMINP    ZMAT    AOBASIS   BASIS     P2S    ABASIS      S 
                                         1400     1410     1200     1210     1080     1600     1650     1300     1700   
                                           T        V       H0       H01     AOSYM     SMH    MOLCAS    ERIS     OPER   

              2       4        2.95       700     1000      520     2100   
                                         GEOM     BASIS   MCVARS     RHF  

 PROGRAMS   *        TOTAL        HF       INT
 CPU TIMES  *         1.54      0.66      0.76
 REAL TIME  *        44.55 SEC
 DISK USED  *       215.53 MB      
 **********************************************************************************************************************************


 PROGRAM * CCSD (Closed-shell coupled cluster)     Authors: C. Hampel, H.-J. Werner, 1991, M. Deegan, P.J. Knowles, 1992

                                  CCSD-F12 implementation by  H.-J. Werner, 2007

                   Density fitting integral evaluation by F.R. Manby, 2003,2007, G. Knizia, 2010

 Basis set AUG-CC-PVTZ/JKFIT generated.  Number of basis functions:   196 
 Basis set CC-PVTZ-F12/OPTRI generated.  Number of basis functions:   157 
 Basis set AUG-CC-PVTZ/MP2FIT generated. Number of basis functions:   198 

 Convergence thresholds:  THRVAR = 1.00D-08  THRDEN = 1.00D-06

 CCSD(T)     terms to be evaluated (factor= 1.000)


 Number of core orbitals:           1 (   1 )
 Number of closed-shell orbitals:   4 (   4 )
 Number of external orbitals:      84 (  84 )

 Molecular orbitals read from record     2100.2  Type=RHF/CANONICAL (state 1.1)

 MP2-F12 correlation treatment (H.-J. Werner, 2006)
 ==================================================

 Using MP2-F12 with ansatz 3C(FIX)

 Using projected zeroth-order Hamiltonian (+Z)

 FOCKRIB=T FOCKRIC=T FOCKRIP=T CABSP=T CABSA=T CABSK=T CABSF=T GBC=F EBC=F DMAT=T NOFIK=T NOPAO=1 SOLVE=-1  USEPAO=0
 EXCH_A= T EXCH_B= F EXCH_C= F EXCH_P= F
 
 Geminal basis:    OPTFULL  GEM_TYPE=SLATER  BETA=1.0  NGEM=6

 Optimizing Gaussian exponents for each gem_beta

 Geminal optimization for beta= 1.0000
 Weight function:   m=0, omega= 1.4646

 Augmented Hessian optimization of geminal fit. Trust ratio= 0.40000
 Convergence reached after   2 iterations. Final gradient= 8.12D-16, Step= 4.39D-06, Delta= 1.28D-09
 
 Alpha:                 0.19532     0.81920     2.85917     9.50073    35.69989   197.79328
 Coeff:                 0.27070     0.30552     0.18297     0.10986     0.06810     0.04224
 

 All pairs explicitly correlated. Number of r12-pairs:           10

 Excluding core orbitals from MO domains
 
 AO(A)-basis ORBITAL           loaded. Number of functions:      89
 RI(R)-basis CC-PVTZ-F12/OPTRI loaded. Number of functions:     157
 DF-basis AUG-CC-PVTZ/JKFIT    loaded. Number of functions:     196

 Screening thresholds:   THRAO=  1.00D-10  THRMO=  1.00D-09  THRPROD=  1.00D-09
                         THRSW=  1.00D-05  THROV=  1.00D-12  THRAOF12=   1.00D-08

 CPU time for Fock operators                      0.43 sec
 
 Construction of ABS:
 Smallest eigenvalue of S          7.19E-04  (threshold= 1.00E-08)
 Ratio eigmin/eigmax               1.20E-04  (threshold= 1.00E-09)
 Smallest eigenvalue of S kept     7.19E-04  (threshold= 7.19E-04, 0 functions deleted, 157 kept)
 
 Construction of CABS:
 Smallest eigenvalue of S          1.79E-06  (threshold= 1.00E-08)
 Ratio eigmin/eigmax               1.79E-06  (threshold= 1.00E-09)
 Smallest eigenvalue of S kept     1.79E-06  (threshold= 1.79E-06, 0 functions deleted, 157 kept)
 
 CPU time for CABS singles                        0.02 sec

 CABS-singles contribution of  -0.00101016 patched into reference energy.
 New reference energy         -76.06293495
 
 AO(A)-basis ORBITAL           loaded. Number of functions:      89
 RI(R)-basis CC-PVTZ-F12/OPTRI loaded. Number of functions:     157
 DF-basis AUG-CC-PVTZ/MP2FIT   loaded. Number of functions:     198

 Screening thresholds:   THRAO=  1.00D-10  THRMO=  1.00D-09  THRPROD=  1.00D-09
                         THRSW=  1.00D-05  THROV=  1.00D-12  THRAOF12=   1.00D-08

 CPU time for 3-index integral evaluation         0.58 sec
 CPU time for sorting                             0.02 sec
 CPU time for assembly                            0.04 sec (13378.1 MFLOP/sec)
 CPU time for tranop_f12                          0.06 sec (10865.5 MFLOP/sec)
 CPU time for f12 integrals (total)               0.78 sec, Elapsed time:      0.79 sec
 CPU time for f12 matrices (total)                0.01 sec, Elapsed time:      0.02 sec

 Diagonal F12 approximation with fixed coefficients:  TSING= 0.500,  TTRIP= 0.250 (scaled by -1/beta)

 DF-MP2-F12 energy corrections:
 ==============================
 Approx.                                    Singlet             Triplet             Total
 DF-MP2-F12/3*C(DX,FIX)                -0.025265551394     -0.003022617970     -0.028288169364
 DF-MP2-F12/3*C(FIX)                   -0.023466593089     -0.002731975743     -0.026198568831
 DF-MP2-F12/3C(FIX)                    -0.023389086295     -0.002828006391     -0.026217092686

 DF-MP2-F12 correlation energies:
 ================================
 Approx.                                    Singlet             Triplet             Ecorr            Total Energy
 DF-MP2                                -0.173978085166     -0.099251374548     -0.273229459714    -76.336164409766
 DF-MP2-F12/3*C(DX,FIX)                -0.199243636559     -0.102273992519     -0.301517629078    -76.364452579130
 DF-MP2-F12/3*C(FIX)                   -0.197444678254     -0.101983350291     -0.299428028545    -76.362362978597
 DF-MP2-F12/3C(FIX)                    -0.197367171460     -0.102079380940     -0.299446552400    -76.362381502452

 SCS-DF-MP2 energies (F_SING= 1.20000  F_TRIP= 0.62222  F_PARALLEL= 0.33333):
 ============================================================================
 SCS-DF-MP2                            -0.270530113029    -76.333465063081
 SCS-DF-MP2-F12/3*C(DX,FIX)            -0.302729514772    -76.365664464823
 SCS-DF-MP2-F12/3*C(FIX)               -0.300389920753    -76.363324870805
 SCS-DF-MP2-F12/3C(FIX)                -0.300356665004    -76.363291615056
 Symmetry transformation completed.

 Number of N-1 electron functions:               4
 Number of N-2 electron functions:              10
 Number of singly external CSFs:               336
 Number of doubly external CSFs:             56616
 Total number of CSFs:                       56953

 Length of J-op  integral file:               9.11 MB
 Length of K-op  integral file:              14.70 MB
 Length of 3-ext integral record:             0.00 MB

 Memory could be reduced to 4.35 Mwords without degradation in triples

 Integral transformation finished. Total CPU:   0.20 sec, npass=  1  Memory used:   2.09 MW

 Reference energy:                    -76.06293495

 Adding F12 terms to K(Cij), methodcc=6,  factor= 1.0

 ITER.      SQ.NORM     CORR.ENERGY   TOTAL ENERGY   ENERGY CHANGE        DEN1      VAR(S)    VAR(P)  DIIS     TIME  TIME/IT
   1      1.06161758    -0.27357606   -76.33651101    -0.00030395     0.00549937  0.72D-03  0.96D-03  1  1     1.70     0.47
   2      1.06485853    -0.27331464   -76.33624959     0.00026142    -0.00453287  0.13D-04  0.10D-03  2  2     1.88     0.33
   3      1.06599822    -0.27344090   -76.33637585    -0.00012626    -0.00078497  0.85D-05  0.66D-05  3  3     2.05     0.28
   4      1.06651713    -0.27346204   -76.33639699    -0.00002114    -0.00034388  0.41D-06  0.52D-06  4  4     2.22     0.26
   5      1.06660512    -0.27346044   -76.33639539     0.00000160    -0.00001919  0.12D-06  0.31D-07  5  5     2.40     0.24
   6      1.06662863    -0.27345918   -76.33639413     0.00000126    -0.00000388  0.10D-07  0.31D-08  6  6     2.57     0.23
   7      1.06663468    -0.27345881   -76.33639376     0.00000037    -0.00000139  0.88D-09  0.24D-09  6  1     2.75     0.23
   8      1.06663607    -0.27345886   -76.33639381    -0.00000006    -0.00000001  0.67D-10  0.26D-10  6  2     2.92     0.22

 Norm of t1 vector:      0.03521860      S-energy:    -0.00000011      T1 diagnostic:  0.00880465
                                                                       D1 diagnostic:  0.01756038

 Adding energy correction from Wij-K(Fij), methodcc=6  factor= 1.0
 
  CCSD correlation energy              -0.273458864647
  MP2-F12 correction (uncoupled)       -0.025096177846
  C*T doubles correction               -0.000841865084
  f12b correction                       0.004273757886


 Total CPU time for triples:      1.85 sec


 RESULTS
 =======

  Reference energy                    -76.061924786549
  F12 singles correction               -0.001010163503

 F12 singles corrections added to reference energy

  New reference energy                -76.062934950052

  F12a singlet correction              -0.023216119693
  F12a triplet correction              -0.002721923238
  F12a total correction                -0.025938042931

 F12a corrections for ansatz F12/3C(FIX) added to CCSD energy
 
  CCSD-F12a singlet pair energy        -0.208669762217
  CCSD-F12a triplet pair energy        -0.090727034981
  CCSD-F12a correlation energy         -0.299396907578

  Triples (T) contribution             -0.008741335304
  Total correlation energy             -0.308138242882

  CCSD-F12a total energy              -76.362331857630
  CCSD[T]-F12a energy                 -76.371367031636
  CCSD-T-F12a energy                  -76.370944901816
 !CCSD(T)-F12a total energy           -76.371073192934

 F12b corrections for ansatz F12/3C(FIX) added to CCSD(T)-F12a energy

  CCSD-F12b singlet pair energy        -0.204707457862
  CCSD-F12b triplet pair energy        -0.090415581449
  CCSD-F12b correlation energy         -0.295123149692

  Triples (T) contribution             -0.008741335304
  Total correlation energy             -0.303864484996

  CCSD-F12b total energy              -76.358058099744
  CCSD[T]-F12b energy                 -76.367093273750
  CCSD-T-F12b energy                  -76.366671143930
 !CCSD(T)-F12b total energy           -76.366799435048

 Timing summary (sec):

 STEP                 CPU(USER)    SYS     CPU(TOT)    WALL
 Transformation          0.20      0.04      0.24      0.38
 CCSD iterations         1.45      0.10      1.55      1.85
 Triples                 1.85      0.02      1.87      1.86
 MP2-F12                 1.27      0.02      1.29      1.30
 F12b energy             0.13      0.02      0.15      0.15

 Program statistics:

 Available memory in ccsd:                49999786
 Min. memory needed in ccsd:                269472
 Max. memory used in ccsd:                  308684
 Max. memory used in cckext:                227914 ( 9 integral passes)



 **********************************************************************************************************************************
 DATASETS  * FILE   NREC   LENGTH (MB)   RECORD NAMES
              1      20       89.43       500      610      700      900      950      970     1000      129      960     1100   
                                          VAR    BASINP    GEOM    SYMINP    ZMAT    AOBASIS   BASIS     P2S    ABASIS      S 
                                         1400     1410     1200     1210     1080     1600     1650     1300     1700     1380   
                                           T        V       H0       H01     AOSYM     SMH    MOLCAS    ERIS     OPER     JKOP   

              2       6        3.11       700     1000      520     2100     7360     7350   
                                         GEOM     BASIS   MCVARS     RHF    F12ABS    EF12   

 PROGRAMS   *        TOTAL   CCSD(T)        HF       INT
 CPU TIMES  *         6.48      4.93      0.66      0.76
 REAL TIME  *        50.68 SEC
 DISK USED  *       215.53 MB      
 **********************************************************************************************************************************

 CCSD(T)-F12/cc-pVTZ-F12 energy=    -76.366799435048

     CCSD(T)-F12        HF-SCF  
    -76.36679944    -76.06192479
 **********************************************************************************************************************************
 Molpro calculation terminated
 Variable memory released
