
 Primary working directories    : /tmp/r2518/22942.maple
 Secondary working directories  : /tmp/r2518/22942.maple
 Wavefunction directory         : /ddn/home1/r2518/wfu/
 Main file repository           : /tmp/r2518/22942.maple/

 SHA1      : d5ffa45e93fdbca01ffc919aa182cfdae0147319
 NAME      : 2015.1.35
 ARCHNAME  : linux/x86_64
 FC        : /opt/intel/composer_xe_2015.1.133/bin/intel64/ifort
 BLASLIB   : -Wl,-_start-group /opt/intel/mkl/lib/intel64/libmkl_intel_ilp64.a /opt/intel/mkl/lib/intel64/libmkl_intel_thread.a /opt/intel/mkl/lib/intel64/libmkl_core.a -Wl,-_end-group
 id        : olemiss

 Nodes     nprocs
 cn031        1

 Using customized tuning parameters: mindgm=1; mindgv=20; mindgc=4; mindgr=1; noblas=0; minvec=7
 default implementation of scratch files=df  

 memory,50,m
 nocompress;
 geomtyp=xyz
 angstrom
 geometry={
 O,0.0,0.0,-0.0657441568
 H,0.05,0.7574590974,0.5217905143
 H,0.0,-0.8074590974,0.5217905143
 }
 basis=cc-pVTZ-F12
 set,charge=0
 set,spin=0
 hf
 {CCSD(T)-F12}

 Variables initialized (889), CPU time= 0.00 sec
 Commands  initialized (702), CPU time= 0.01 sec, 572 directives.
 Default parameters read. Elapsed time= 0.06 sec

 Checking input...
 Passed
1


                                         ***  PROGRAM SYSTEM MOLPRO  ***
                                       Copyright, TTI GmbH Stuttgart, 2015
                                    Version 2015.1 linked Jul  9 2018 13:16:40


 **********************************************************************************************************************************
 LABEL *                                                                                 
  64 bit serial version                                                                  DATE: 28-Aug-19          TIME: 15:37:43  
 **********************************************************************************************************************************

 SHA1:             d5ffa45e93fdbca01ffc919aa182cfdae0147319
 **********************************************************************************************************************************

 Input parameters for SORTINT:

 COMPRESS =    0.000000
 C_FINAL  =    1.000000
 DEBUG    =   -1.000000
 C_SORT1  =    0.000000
 C_SEWARD =    0.000000
 THRESH   =    0.000000
 IO       =  molpro                                                          
 SPRI     =    0.000000
 SETTING GEOMTYP        =    XYZ
 ZUNIT=ANG
 

 Variable memory set to   50000000 words,  buffer space   230000 words

 SETTING BASIS          =    CC-PVTZ-F12
 SETTING CHARGE         =     0.00000000D+00                                  
 SETTING SPIN           =     0.00000000D+00                                  


 Recomputing integrals since basis changed


 Using spherical harmonics

 Library entry O      S cc-pVTZ-F12          selected for orbital group  1
 Library entry O      P cc-pVTZ-F12          selected for orbital group  1
 Library entry O      D cc-pVTZ-F12          selected for orbital group  1
 Library entry O      F cc-pVTZ-F12          selected for orbital group  1
 Library entry H      S cc-pVTZ-F12          selected for orbital group  2
 Library entry H      P cc-pVTZ-F12          selected for orbital group  2
 Library entry H      D cc-pVTZ-F12          selected for orbital group  2


 PROGRAM * SEWARD (Integral evaluation for generally contracted gaussian basis sets)     Author: Roland Lindh, 1990

 Geometry written to block  1 of record 700


 Point group  C1  



 ATOMIC COORDINATES

 NR  ATOM    CHARGE       X              Y              Z

   1  O       8.00    0.000000000    0.000000000   -0.124238451
   2  H       1.00    0.094486306    1.431390245    0.986041166
   3  H       1.00    0.000000000   -1.525876551    0.986041166

 Bond lengths in Bohr (Angstrom)

 1-2  1.813980850  1-3  1.887066527
     ( 0.959917327)     ( 0.998592601)

 Bond angles

  2-1-3  106.13706693

 NUCLEAR CHARGE:                   10
 NUMBER OF PRIMITIVE AOS:         114
 NUMBER OF SYMMETRY AOS:          103
 NUMBER OF CONTRACTIONS:           89   (  89A   )
 NUMBER OF CORE ORBITALS:           1   (   1A   )
 NUMBER OF VALENCE ORBITALS:        6   (   6A   )


 NUCLEAR REPULSION ENERGY    8.98755169


 Eigenvalues of metric

         1 0.229E-03 0.471E-03 0.580E-03 0.694E-03 0.717E-03 0.816E-03 0.163E-02 0.207E-02


 Contracted 2-electron integrals neglected if value below      1.0D-11

        5897304. INTEGRALS WRITTEN OUT IN    1441 BLOCKS ON RECORD 1290 OF FILE 1


 NUMBER OF SORTED TWO-ELECTRON INTEGRALS:    8022015.     BUFFER LENGTH:  32768
 NUMBER OF SEGMENTS:   1  SEGMENT LENGTH:    8022015      RECORD LENGTH: 524288

 Memory used in sort:       8.58 MW

 SORT1 READ     5897304. AND WROTE     5897304. INTEGRALS IN     17 RECORDS. CPU TIME:     0.15 SEC, REAL TIME:     0.21 SEC
 SORT2 READ     5897304. AND WROTE     8022015. INTEGRALS IN      1 RECORDS. CPU TIME:     0.10 SEC, REAL TIME:     0.16 SEC

 FILE SIZES:   FILE 1:   114.6 MBYTE,  FILE 4:    71.3 MBYTE,   TOTAL:    186.0 MBYTE

 OPERATOR DM      FOR CENTER  0  COORDINATES:    0.000000    0.000000    0.000000


 **********************************************************************************************************************************
 DATASETS  * FILE   NREC   LENGTH (MB)   RECORD NAMES
              1      19       70.14       500      610      700      900      950      970     1000      129      960     1100   
                                          VAR    BASINP    GEOM    SYMINP    ZMAT    AOBASIS   BASIS     P2S    ABASIS      S 
                                         1400     1410     1200     1210     1080     1600     1650     1300     1700   
                                           T        V       H0       H01     AOSYM     SMH    MOLCAS    ERIS     OPER   

 PROGRAMS   *        TOTAL       INT
 CPU TIMES  *         0.67      0.60
 REAL TIME  *         1.09 SEC
 DISK USED  *       186.30 MB      
 **********************************************************************************************************************************


 PROGRAM * RHF-SCF (CLOSED SHELL)       Authors: W. Meyer, H.-J. Werner


 NUMBER OF ELECTRONS:       5+    5-    SPACE SYMMETRY=1    SPIN SYMMETRY: Singlet 
 CONVERGENCE THRESHOLDS:    1.00E-05 (Density)    1.00E-07 (Energy)
 MAX. NUMBER OF ITERATIONS:       60
 INTERPOLATION TYPE:            DIIS
 INTERPOLATION STEPS:              2 (START)      1 (STEP)
 LEVEL SHIFTS:                  0.00 (CLOSED)  0.00 (OPEN) 



 Orbital guess generated from atomic densities. Full valence occupancy:    7

 Molecular orbital dump at record        2100.2

 Initial occupancy:   5

 ITERATION    DDIFF          GRAD             ENERGY        2-EL.EN.            DIPOLE MOMENTS         DIIS   ORB.
    1      0.000D+00      0.000D+00       -76.02360226     77.399678    0.04819   -0.06179    1.14240    0    start
    2      0.000D+00      0.106D-01       -76.05038121     73.739247    0.02865   -0.02416    0.67000    1    diag
    3      0.111D-01      0.674D-02       -76.06194262     75.362642    0.03356   -0.03095    0.78686    2    diag
    4      0.389D-02      0.632D-03       -76.06214012     75.270459    0.03343   -0.02833    0.78205    3    diag
    5      0.561D-03      0.178D-03       -76.06216154     75.284842    0.03339   -0.02725    0.78018    4    diag
    6      0.202D-03      0.357D-04       -76.06216296     75.283745    0.03338   -0.02689    0.77968    5    diag
    7      0.588D-04      0.729D-05       -76.06216303     75.283899    0.03337   -0.02680    0.77951    6    diag
    8      0.132D-04      0.141D-05       -76.06216303     75.283886    0.03337   -0.02678    0.77946    7    diag
    9      0.244D-05      0.192D-06       -76.06216303     75.283872    0.03337   -0.02678    0.77946    0    orth

 Final occupancy:   5

 !RHF STATE 1.1 Energy                -76.062163033632
 Nuclear energy                         8.98755169
 One-electron energy                 -122.69165093
 Two-electron energy                   37.64193620
 Virial quotient                       -1.00199170
 !RHF STATE 1.1 Dipole moment           0.03337052    -0.02678294     0.77946009
 Dipole moment /Debye                   0.08481384    -0.06807099     1.98106018

 Orbital energies:

         1.1          2.1          3.1          4.1          5.1          6.1          7.1
    -20.567865    -1.341106    -0.709103    -0.577528    -0.508288     0.102991     0.120715

 HOMO      5.1    -0.508288 =     -13.8312eV
 LUMO      6.1     0.102991 =       2.8025eV
 LUMO-HOMO         0.611278 =      16.6337eV


 **********************************************************************************************************************************
 DATASETS  * FILE   NREC   LENGTH (MB)   RECORD NAMES
              1      19       70.14       500      610      700      900      950      970     1000      129      960     1100   
                                          VAR    BASINP    GEOM    SYMINP    ZMAT    AOBASIS   BASIS     P2S    ABASIS      S 
                                         1400     1410     1200     1210     1080     1600     1650     1300     1700   
                                           T        V       H0       H01     AOSYM     SMH    MOLCAS    ERIS     OPER   

              2       4        2.95       700     1000      520     2100   
                                         GEOM     BASIS   MCVARS     RHF  

 PROGRAMS   *        TOTAL        HF       INT
 CPU TIMES  *         1.33      0.65      0.60
 REAL TIME  *         1.83 SEC
 DISK USED  *       186.30 MB      
 **********************************************************************************************************************************


 PROGRAM * CCSD (Closed-shell coupled cluster)     Authors: C. Hampel, H.-J. Werner, 1991, M. Deegan, P.J. Knowles, 1992

                                  CCSD-F12 implementation by  H.-J. Werner, 2007

                   Density fitting integral evaluation by F.R. Manby, 2003,2007, G. Knizia, 2010

 Basis set AUG-CC-PVTZ/JKFIT generated.  Number of basis functions:   196 
 Basis set CC-PVTZ-F12/OPTRI generated.  Number of basis functions:   157 
 Basis set AUG-CC-PVTZ/MP2FIT generated. Number of basis functions:   198 

 Convergence thresholds:  THRVAR = 1.00D-08  THRDEN = 1.00D-06

 CCSD(T)     terms to be evaluated (factor= 1.000)


 Number of core orbitals:           1 (   1 )
 Number of closed-shell orbitals:   4 (   4 )
 Number of external orbitals:      84 (  84 )

 Molecular orbitals read from record     2100.2  Type=RHF/CANONICAL (state 1.1)

 MP2-F12 correlation treatment (H.-J. Werner, 2006)
 ==================================================

 Using MP2-F12 with ansatz 3C(FIX)

 Using projected zeroth-order Hamiltonian (+Z)

 FOCKRIB=T FOCKRIC=T FOCKRIP=T CABSP=T CABSA=T CABSK=T CABSF=T GBC=F EBC=F DMAT=T NOFIK=T NOPAO=1 SOLVE=-1  USEPAO=0
 EXCH_A= T EXCH_B= F EXCH_C= F EXCH_P= F
 
 Geminal basis:    OPTFULL  GEM_TYPE=SLATER  BETA=1.0  NGEM=6

 Optimizing Gaussian exponents for each gem_beta

 Geminal optimization for beta= 1.0000
 Weight function:   m=0, omega= 1.4646

 Augmented Hessian optimization of geminal fit. Trust ratio= 0.40000
 Convergence reached after   2 iterations. Final gradient= 8.41D-16, Step= 4.29D-06, Delta= 1.28D-09
 
 Alpha:                 0.19532     0.81920     2.85917     9.50073    35.69989   197.79328
 Coeff:                 0.27070     0.30552     0.18297     0.10986     0.06810     0.04224
 

 All pairs explicitly correlated. Number of r12-pairs:           10

 Excluding core orbitals from MO domains
 
 AO(A)-basis ORBITAL           loaded. Number of functions:      89
 RI(R)-basis CC-PVTZ-F12/OPTRI loaded. Number of functions:     157
 DF-basis AUG-CC-PVTZ/JKFIT    loaded. Number of functions:     196

 Screening thresholds:   THRAO=  1.00D-10  THRMO=  1.00D-09  THRPROD=  1.00D-09
                         THRSW=  1.00D-05  THROV=  1.00D-12  THRAOF12=   1.00D-08

 CPU time for Fock operators                      0.37 sec
 
 Construction of ABS:
 Smallest eigenvalue of S          8.22E-04  (threshold= 1.00E-08)
 Ratio eigmin/eigmax               1.39E-04  (threshold= 1.00E-09)
 Smallest eigenvalue of S kept     8.22E-04  (threshold= 8.22E-04, 0 functions deleted, 157 kept)
 
 Construction of CABS:
 Smallest eigenvalue of S          2.07E-06  (threshold= 1.00E-08)
 Ratio eigmin/eigmax               2.07E-06  (threshold= 1.00E-09)
 Smallest eigenvalue of S kept     2.07E-06  (threshold= 2.07E-06, 0 functions deleted, 157 kept)
 
 CPU time for CABS singles                        0.01 sec

 CABS-singles contribution of  -0.00096958 patched into reference energy.
 New reference energy         -76.06313261
 
 AO(A)-basis ORBITAL           loaded. Number of functions:      89
 RI(R)-basis CC-PVTZ-F12/OPTRI loaded. Number of functions:     157
 DF-basis AUG-CC-PVTZ/MP2FIT   loaded. Number of functions:     198

 Screening thresholds:   THRAO=  1.00D-10  THRMO=  1.00D-09  THRPROD=  1.00D-09
                         THRSW=  1.00D-05  THROV=  1.00D-12  THRAOF12=   1.00D-08

 CPU time for 3-index integral evaluation         0.44 sec
 CPU time for first  half transformation          0.05 sec ( 3527.2 MFLOP/sec)
 CPU time for second half transformation          0.01 sec (  493.4 MFLOP/sec)
 CPU time for assembly                            0.02 sec (26756.3 MFLOP/sec)
 CPU time for tranop_f12                          0.03 sec (21731.0 MFLOP/sec)
 CPU time for f12 integrals (total)               0.62 sec, Elapsed time:      0.66 sec
 CPU time for f12 matrices (total)                0.01 sec, Elapsed time:      0.02 sec

 Diagonal F12 approximation with fixed coefficients:  TSING= 0.500,  TTRIP= 0.250 (scaled by -1/beta)

 DF-MP2-F12 energy corrections:
 ==============================
 Approx.                                    Singlet             Triplet             Total
 DF-MP2-F12/3*C(DX,FIX)                -0.025157254201     -0.003001460911     -0.028158715112
 DF-MP2-F12/3*C(FIX)                   -0.023391297167     -0.002716678096     -0.026107975264
 DF-MP2-F12/3C(FIX)                    -0.023316986097     -0.002812689370     -0.026129675467

 DF-MP2-F12 correlation energies:
 ================================
 Approx.                                    Singlet             Triplet             Ecorr            Total Energy
 DF-MP2                                -0.174886574819     -0.099728905904     -0.274615480723    -76.337748089851
 DF-MP2-F12/3*C(DX,FIX)                -0.200043829019     -0.102730366815     -0.302774195834    -76.365906804963
 DF-MP2-F12/3*C(FIX)                   -0.198277871986     -0.102445584000     -0.300723455986    -76.363856065115
 DF-MP2-F12/3C(FIX)                    -0.198203560916     -0.102541595273     -0.300745156189    -76.363877765318

 SCS-DF-MP2 energies (F_SING= 1.20000  F_TRIP= 0.62222  F_PARALLEL= 0.33333):
 ============================================================================
 SCS-DF-MP2                            -0.271917431234    -76.335050040362
 SCS-DF-MP2-F12/3*C(DX,FIX)            -0.303973711953    -76.367106321081
 SCS-DF-MP2-F12/3*C(FIX)               -0.301677365317    -76.364809974445
 SCS-DF-MP2-F12/3C(FIX)                -0.301647932380    -76.364780541509
 Symmetry transformation completed.

 Number of N-1 electron functions:               4
 Number of N-2 electron functions:              10
 Number of singly external CSFs:               336
 Number of doubly external CSFs:             56616
 Total number of CSFs:                       56953

 Length of J-op  integral file:               9.11 MB
 Length of K-op  integral file:              14.70 MB
 Length of 3-ext integral record:             0.00 MB

 Memory could be reduced to 4.35 Mwords without degradation in triples

 Integral transformation finished. Total CPU:   0.15 sec, npass=  1  Memory used:   2.09 MW

 Reference energy:                    -76.06313261

 Adding F12 terms to K(Cij), methodcc=6,  factor= 1.0

 ITER.      SQ.NORM     CORR.ENERGY   TOTAL ENERGY   ENERGY CHANGE        DEN1      VAR(S)    VAR(P)  DIIS     TIME  TIME/IT
   1      1.06270053    -0.27476181   -76.33789442    -0.00010308     0.00589565  0.76D-03  0.10D-02  1  1     1.38     0.14
   2      1.06610286    -0.27450880   -76.33764140     0.00025301    -0.00468388  0.14D-04  0.11D-03  2  2     1.51     0.15
   3      1.06732440    -0.27464448   -76.33777709    -0.00013568    -0.00082489  0.92D-05  0.73D-05  3  3     1.66     0.15
   4      1.06788512    -0.27466701   -76.33779962    -0.00002254    -0.00036521  0.45D-06  0.57D-06  4  4     1.81     0.15
   5      1.06798071    -0.27466547   -76.33779808     0.00000154    -0.00002097  0.13D-06  0.35D-07  5  5     1.92     0.15
   6      1.06800654    -0.27466415   -76.33779676     0.00000132    -0.00000435  0.11D-07  0.36D-08  6  6     2.05     0.15
   7      1.06801314    -0.27466377   -76.33779638     0.00000038    -0.00000150  0.10D-08  0.28D-09  6  1     2.19     0.15
   8      1.06801466    -0.27466383   -76.33779644    -0.00000006    -0.00000001  0.84D-10  0.31D-10  6  2     2.32     0.15

 Norm of t1 vector:      0.03622165      S-energy:    -0.00000012      T1 diagnostic:  0.00905541
                                                                       D1 diagnostic:  0.01813876

 Adding energy correction from Wij-K(Fij), methodcc=6  factor= 1.0
 
  CCSD correlation energy              -0.274663828336
  MP2-F12 correction (uncoupled)       -0.025003275662
  C*T doubles correction               -0.000841300098
  f12b correction                       0.004284778587


 Total CPU time for triples:      0.71 sec


 RESULTS
 =======

  Reference energy                    -76.062163033632
  F12 singles correction               -0.000969575496

 F12 singles corrections added to reference energy

  New reference energy                -76.063132609128

  F12a singlet correction              -0.023138049125
  F12a triplet correction              -0.002706526635
  F12a total correction                -0.025844575760

 F12a corrections for ansatz F12/3C(FIX) added to CCSD energy
 
  CCSD-F12a singlet pair energy        -0.209679578595
  CCSD-F12a triplet pair energy        -0.090828705557
  CCSD-F12a correlation energy         -0.300508404096

  Triples (T) contribution             -0.008919139908
  Total correlation energy             -0.309427544005

  CCSD-F12a total energy              -76.363641013225
  CCSD[T]-F12a energy                 -76.372867865107
  CCSD-T-F12a energy                  -76.372425336730
 !CCSD(T)-F12a total energy           -76.372560153133

 F12b corrections for ansatz F12/3C(FIX) added to CCSD(T)-F12a energy

  CCSD-F12b singlet pair energy        -0.205705460864
  CCSD-F12b triplet pair energy        -0.090518044701
  CCSD-F12b correlation energy         -0.296223625509

  Triples (T) contribution             -0.008919139908
  Total correlation energy             -0.305142765417

  CCSD-F12b total energy              -76.359356234638
  CCSD[T]-F12b energy                 -76.368583086520
  CCSD-T-F12b energy                  -76.368140558142
 !CCSD(T)-F12b total energy           -76.368275374546

 Timing summary (sec):

 STEP                 CPU(USER)    SYS     CPU(TOT)    WALL
 Transformation          0.16      0.04      0.20      0.20
 CCSD iterations         1.11      0.13      1.24      1.26
 Triples                 0.71      0.02      0.73      0.74
 MP2-F12                 1.05      0.06      1.11      1.11
 F12b energy             0.11      0.01      0.12      0.11

 Program statistics:

 Available memory in ccsd:                49999786
 Min. memory needed in ccsd:                269472
 Max. memory used in ccsd:                  308684
 Max. memory used in cckext:                227914 ( 9 integral passes)



 **********************************************************************************************************************************
 DATASETS  * FILE   NREC   LENGTH (MB)   RECORD NAMES
              1      20       80.82       500      610      700      900      950      970     1000      129      960     1100   
                                          VAR    BASINP    GEOM    SYMINP    ZMAT    AOBASIS   BASIS     P2S    ABASIS      S 
                                         1400     1410     1200     1210     1080     1600     1650     1300     1700     1380   
                                           T        V       H0       H01     AOSYM     SMH    MOLCAS    ERIS     OPER     JKOP   

              2       6        3.11       700     1000      520     2100     7360     7350   
                                         GEOM     BASIS   MCVARS     RHF    F12ABS    EF12   

 PROGRAMS   *        TOTAL   CCSD(T)        HF       INT
 CPU TIMES  *         4.49      3.16      0.65      0.60
 REAL TIME  *         5.29 SEC
 DISK USED  *       186.30 MB      
 **********************************************************************************************************************************

 CCSD(T)-F12/cc-pVTZ-F12 energy=    -76.368275374546

     CCSD(T)-F12        HF-SCF  
    -76.36827537    -76.06216303
 **********************************************************************************************************************************
 Molpro calculation terminated
 Variable memory released
