
 Primary working directories    : /tmp/r2518/22953.maple
 Secondary working directories  : /tmp/r2518/22953.maple
 Wavefunction directory         : /ddn/home1/r2518/wfu/
 Main file repository           : /tmp/r2518/22953.maple/

 SHA1      : d5ffa45e93fdbca01ffc919aa182cfdae0147319
 NAME      : 2015.1.35
 ARCHNAME  : linux/x86_64
 FC        : /opt/intel/composer_xe_2015.1.133/bin/intel64/ifort
 BLASLIB   : -Wl,-_start-group /opt/intel/mkl/lib/intel64/libmkl_intel_ilp64.a /opt/intel/mkl/lib/intel64/libmkl_intel_thread.a /opt/intel/mkl/lib/intel64/libmkl_core.a -Wl,-_end-group
 id        : olemiss

 Nodes     nprocs
 cn096        1

 Using customized tuning parameters: mindgm=1; mindgv=20; mindgc=4; mindgr=1; noblas=0; minvec=7
 default implementation of scratch files=df  

 memory,50,m
 nocompress;
 geomtyp=xyz
 angstrom
 geometry={
 O,0.0,0.0,-0.0657441568
 H,0.0,0.7574590974,0.4717905143
 H,0.0,-0.7074590973999999,0.5217905143
 }
 basis=cc-pVTZ-F12
 set,charge=0
 set,spin=0
 hf
 {CCSD(T)-F12}

 Variables initialized (889), CPU time= 0.01 sec
 Commands  initialized (702), CPU time= 0.01 sec, 572 directives.
 Default parameters read. Elapsed time= 0.05 sec

 Checking input...
 Passed
1


                                         ***  PROGRAM SYSTEM MOLPRO  ***
                                       Copyright, TTI GmbH Stuttgart, 2015
                                    Version 2015.1 linked Jul  9 2018 13:16:40


 **********************************************************************************************************************************
 LABEL *                                                                                 
  64 bit serial version                                                                  DATE: 28-Aug-19          TIME: 15:37:44  
 **********************************************************************************************************************************

 SHA1:             d5ffa45e93fdbca01ffc919aa182cfdae0147319
 **********************************************************************************************************************************

 Input parameters for SORTINT:

 COMPRESS =    0.000000
 C_FINAL  =    1.000000
 DEBUG    =   -1.000000
 C_SORT1  =    0.000000
 C_SEWARD =    0.000000
 THRESH   =    0.000000
 IO       =  molpro                                                          
 SPRI     =    0.000000
 SETTING GEOMTYP        =    XYZ
 ZUNIT=ANG
 

 Variable memory set to   50000000 words,  buffer space   230000 words

 SETTING BASIS          =    CC-PVTZ-F12
 SETTING CHARGE         =     0.00000000D+00                                  
 SETTING SPIN           =     0.00000000D+00                                  


 Recomputing integrals since basis changed


 Using spherical harmonics

 Library entry O      S cc-pVTZ-F12          selected for orbital group  1
 Library entry O      P cc-pVTZ-F12          selected for orbital group  1
 Library entry O      D cc-pVTZ-F12          selected for orbital group  1
 Library entry O      F cc-pVTZ-F12          selected for orbital group  1
 Library entry H      S cc-pVTZ-F12          selected for orbital group  2
 Library entry H      P cc-pVTZ-F12          selected for orbital group  2
 Library entry H      D cc-pVTZ-F12          selected for orbital group  2


 PROGRAM * SEWARD (Integral evaluation for generally contracted gaussian basis sets)     Author: Roland Lindh, 1990

 Geometry written to block  1 of record 700


 Point group  Cs  



 ATOMIC COORDINATES

 NR  ATOM    CHARGE       X              Y              Z

   1  O       8.00    0.000000000    0.000000000   -0.124238451
   2  H       1.00    0.000000000    1.431390245    0.891554860
   3  H       1.00    0.000000000   -1.336903938    0.986041166

 Bond lengths in Bohr (Angstrom)

 1-2  1.755196309  1-3  1.737824205
     ( 0.928809887)     ( 0.919616966)

 Bond angles

  2-1-3  104.92924373

 NUCLEAR CHARGE:                   10
 NUMBER OF PRIMITIVE AOS:         114
 NUMBER OF SYMMETRY AOS:          103
 NUMBER OF CONTRACTIONS:           89   (  61A'  +  28A"  )
 NUMBER OF CORE ORBITALS:           1   (   1A'  +   0A"  )
 NUMBER OF VALENCE ORBITALS:        6   (   5A'  +   1A"  )


 NUCLEAR REPULSION ENERGY    9.52237536

 Eigenvalues of metric

         1 0.189E-03 0.411E-03 0.561E-03 0.701E-03 0.768E-03 0.151E-02 0.192E-02 0.200E-02
         2 0.686E-03 0.697E-02 0.846E-02 0.416E-01 0.830E-01 0.875E-01 0.117E+00 0.182E+00


 Contracted 2-electron integrals neglected if value below      1.0D-11

        3676647. INTEGRALS WRITTEN OUT IN     898 BLOCKS ON RECORD 1290 OF FILE 1


 NUMBER OF SORTED TWO-ELECTRON INTEGRALS:    4174745.     BUFFER LENGTH:  32768
 NUMBER OF SEGMENTS:   1  SEGMENT LENGTH:    4174745      RECORD LENGTH: 524288

 Memory used in sort:       4.73 MW

 SORT1 READ     3676647. AND WROTE     3739763. INTEGRALS IN     11 RECORDS. CPU TIME:     0.05 SEC, REAL TIME:     0.08 SEC
 SORT2 READ     3739763. AND WROTE     4174745. INTEGRALS IN      1 RECORDS. CPU TIME:     0.07 SEC, REAL TIME:     0.10 SEC

 FILE SIZES:   FILE 1:    79.0 MBYTE,  FILE 4:    46.2 MBYTE,   TOTAL:    125.2 MBYTE

 OPERATOR DM      FOR CENTER  0  COORDINATES:    0.000000    0.000000    0.000000


 **********************************************************************************************************************************
 DATASETS  * FILE   NREC   LENGTH (MB)   RECORD NAMES
              1      19       51.17       500      610      700      900      950      970     1000      129      960     1100   
                                          VAR    BASINP    GEOM    SYMINP    ZMAT    AOBASIS   BASIS     P2S    ABASIS      S 
                                         1400     1410     1200     1210     1080     1600     1650     1300     1700   
                                           T        V       H0       H01     AOSYM     SMH    MOLCAS    ERIS     OPER   

 PROGRAMS   *        TOTAL       INT
 CPU TIMES  *         0.51      0.42
 REAL TIME  *         0.81 SEC
 DISK USED  *       125.48 MB      
 **********************************************************************************************************************************


 PROGRAM * RHF-SCF (CLOSED SHELL)       Authors: W. Meyer, H.-J. Werner


 NUMBER OF ELECTRONS:       5+    5-
 CONVERGENCE THRESHOLDS:    1.00E-05 (Density)    1.00E-07 (Energy)
 MAX. NUMBER OF ITERATIONS:       60
 INTERPOLATION TYPE:            DIIS
 INTERPOLATION STEPS:              2 (START)      1 (STEP)
 LEVEL SHIFTS:                  0.00 (CLOSED)  0.00 (OPEN) 



 Orbital guess generated from atomic densities. Full valence occupancy:    6   1

 Molecular orbital dump at record        2100.2

 Initial occupancy:   4   1

 ITERATION    DDIFF          GRAD             ENERGY        2-EL.EN.            DIPOLE MOMENTS         DIIS   ORB.
    1      0.000D+00      0.000D+00       -76.02771797     78.158930    0.00000    0.05108    1.08626    0    start
    2      0.000D+00      0.137D-01       -76.05482025     74.657708    0.00000    0.02844    0.66860    1    diag
    3      0.150D-01      0.822D-02       -76.06498349     76.168675    0.00000    0.03341    0.77138    2    diag
    4      0.492D-02      0.781D-03       -76.06515361     76.081199    0.00000    0.03286    0.76994    3    diag
    5      0.734D-03      0.199D-03       -76.06516825     76.093822    0.00000    0.03265    0.76939    4    diag
    6      0.239D-03      0.353D-04       -76.06516898     76.093138    0.00000    0.03260    0.76939    5    diag
    7      0.661D-04      0.623D-05       -76.06516901     76.093255    0.00000    0.03258    0.76935    6    diag
    8      0.130D-04      0.134D-05       -76.06516901     76.093253    0.00000    0.03258    0.76932    7    diag
    9      0.224D-05      0.171D-06       -76.06516901     76.093242    0.00000    0.03258    0.76932    0    orth

 Final occupancy:   4   1

 !RHF STATE 1.1 Energy                -76.065169008631
 Nuclear energy                         9.52237536
 One-electron energy                 -123.63416523
 Two-electron energy                   38.04662087
 Virial quotient                       -0.99912043
 !RHF STATE 1.1 Dipole moment           0.00000000     0.03257580     0.76932168
 Dipole moment /Debye                   0.00000000     0.08279399     1.95529260

 Orbital energies:

         1.1          2.1          3.1          4.1          5.1          6.1
    -20.558742    -1.370539    -0.737381    -0.590515     0.100466     0.119544

         1.2          2.2          3.2
     -0.513284     0.144850     0.482248

 HOMO      1.2    -0.513284 =     -13.9672eV
 LUMO      5.1     0.100466 =       2.7338eV
 LUMO-HOMO         0.613750 =      16.7010eV


 **********************************************************************************************************************************
 DATASETS  * FILE   NREC   LENGTH (MB)   RECORD NAMES
              1      19       51.17       500      610      700      900      950      970     1000      129      960     1100   
                                          VAR    BASINP    GEOM    SYMINP    ZMAT    AOBASIS   BASIS     P2S    ABASIS      S 
                                         1400     1410     1200     1210     1080     1600     1650     1300     1700   
                                           T        V       H0       H01     AOSYM     SMH    MOLCAS    ERIS     OPER   

              2       4        2.88       700     1000      520     2100   
                                         GEOM     BASIS   MCVARS     RHF  

 PROGRAMS   *        TOTAL        HF       INT
 CPU TIMES  *         0.74      0.23      0.42
 REAL TIME  *         1.08 SEC
 DISK USED  *       125.48 MB      
 **********************************************************************************************************************************


 PROGRAM * CCSD (Closed-shell coupled cluster)     Authors: C. Hampel, H.-J. Werner, 1991, M. Deegan, P.J. Knowles, 1992

                                  CCSD-F12 implementation by  H.-J. Werner, 2007

                   Density fitting integral evaluation by F.R. Manby, 2003,2007, G. Knizia, 2010

 Basis set AUG-CC-PVTZ/JKFIT generated.  Number of basis functions:   196 
 Basis set CC-PVTZ-F12/OPTRI generated.  Number of basis functions:   157 
 Basis set AUG-CC-PVTZ/MP2FIT generated. Number of basis functions:   198 

 Convergence thresholds:  THRVAR = 1.00D-08  THRDEN = 1.00D-06

 CCSD(T)     terms to be evaluated (factor= 1.000)


 Number of core orbitals:           1 (   1   0 )
 Number of closed-shell orbitals:   4 (   3   1 )
 Number of external orbitals:      84 (  57  27 )

 Molecular orbitals read from record     2100.2  Type=RHF/CANONICAL (state 1.1)

 MP2-F12 correlation treatment (H.-J. Werner, 2006)
 ==================================================

 Using MP2-F12 with ansatz 3C(FIX)

 Using projected zeroth-order Hamiltonian (+Z)

 FOCKRIB=T FOCKRIC=T FOCKRIP=T CABSP=T CABSA=T CABSK=T CABSF=T GBC=F EBC=F DMAT=T NOFIK=T NOPAO=1 SOLVE=-1  USEPAO=0
 EXCH_A= T EXCH_B= F EXCH_C= F EXCH_P= F
 
 Geminal basis:    OPTFULL  GEM_TYPE=SLATER  BETA=1.0  NGEM=6

 Optimizing Gaussian exponents for each gem_beta

 Geminal optimization for beta= 1.0000
 Weight function:   m=0, omega= 1.4646

 Augmented Hessian optimization of geminal fit. Trust ratio= 0.40000
 Convergence reached after   2 iterations. Final gradient= 8.41D-16, Step= 4.29D-06, Delta= 1.28D-09
 
 Alpha:                 0.19532     0.81920     2.85917     9.50073    35.69989   197.79328
 Coeff:                 0.27070     0.30552     0.18297     0.10986     0.06810     0.04224
 

 Symmetry turned off. Reference energy:        -76.065169008630

 All pairs explicitly correlated. Number of r12-pairs:           10

 Excluding core orbitals from MO domains
 
 AO(A)-basis ORBITAL           loaded. Number of functions:      89
 RI(R)-basis CC-PVTZ-F12/OPTRI loaded. Number of functions:     157
 DF-basis AUG-CC-PVTZ/JKFIT    loaded. Number of functions:     196

 Screening thresholds:   THRAO=  1.00D-10  THRMO=  1.00D-09  THRPROD=  1.00D-09
                         THRSW=  1.00D-05  THROV=  1.00D-12  THRAOF12=   1.00D-08

 CPU time for Fock operators                      0.78 sec
 
 Construction of ABS:
 Smallest eigenvalue of S          6.88E-04  (threshold= 1.00E-08)
 Ratio eigmin/eigmax               1.13E-04  (threshold= 1.00E-09)
 Smallest eigenvalue of S kept     6.88E-04  (threshold= 6.88E-04, 0 functions deleted, 157 kept)
 
 Construction of CABS:
 Smallest eigenvalue of S          1.54E-06  (threshold= 1.00E-08)
 Ratio eigmin/eigmax               1.54E-06  (threshold= 1.00E-09)
 Smallest eigenvalue of S kept     1.54E-06  (threshold= 1.54E-06, 0 functions deleted, 157 kept)
 
 CPU time for CABS singles                        0.01 sec

 CABS-singles contribution of  -0.00107829 patched into reference energy.
 New reference energy         -76.06624730
 
 AO(A)-basis ORBITAL           loaded. Number of functions:      89
 RI(R)-basis CC-PVTZ-F12/OPTRI loaded. Number of functions:     157
 DF-basis AUG-CC-PVTZ/MP2FIT   loaded. Number of functions:     198

 Screening thresholds:   THRAO=  1.00D-10  THRMO=  1.00D-09  THRPROD=  1.00D-09
                         THRSW=  1.00D-05  THROV=  1.00D-12  THRAOF12=   1.00D-08

 CPU time for 3-index integral evaluation         0.40 sec
 CPU time for first  half transformation          0.02 sec ( 8818.0 MFLOP/sec)
 CPU time for second half transformation          0.02 sec (  246.7 MFLOP/sec)
 CPU time for assembly                            0.02 sec (26756.3 MFLOP/sec)
 CPU time for tranop_f12                          0.01 sec (65192.9 MFLOP/sec)
 CPU time for f12 integrals (total)               1.16 sec, Elapsed time:      1.19 sec
 CPU time for f12 matrices (total)                0.01 sec, Elapsed time:      0.01 sec

 Diagonal F12 approximation with fixed coefficients:  TSING= 0.500,  TTRIP= 0.250 (scaled by -1/beta)

 DF-MP2-F12 energy corrections:
 ==============================
 Approx.                                    Singlet             Triplet             Total
 DF-MP2-F12/3*C(DX,FIX)                -0.025472553113     -0.003060035824     -0.028532588937
 DF-MP2-F12/3*C(FIX)                   -0.023616925901     -0.002758279708     -0.026375205609
 DF-MP2-F12/3C(FIX)                    -0.023537330382     -0.002854637501     -0.026391967883

 DF-MP2-F12 correlation energies:
 ================================
 Approx.                                    Singlet             Triplet             Ecorr            Total Energy
 DF-MP2                                -0.172049520154     -0.098283562465     -0.270333082619    -76.336580384927
 DF-MP2-F12/3*C(DX,FIX)                -0.197522073267     -0.101343598289     -0.298865671556    -76.365112973864
 DF-MP2-F12/3*C(FIX)                   -0.195666446055     -0.101041842173     -0.296708288229    -76.362955590536
 DF-MP2-F12/3C(FIX)                    -0.195586850537     -0.101138199966     -0.296725050503    -76.362972352810

 SCS-DF-MP2 energies (F_SING= 1.20000  F_TRIP= 0.62222  F_PARALLEL= 0.33333):
 ============================================================================
 SCS-DF-MP2                            -0.267613640830    -76.333860943138
 SCS-DF-MP2-F12/3*C(DX,FIX)            -0.300084726856    -76.366332029164
 SCS-DF-MP2-F12/3*C(FIX)               -0.297670214841    -76.363917517149
 SCS-DF-MP2-F12/3C(FIX)                -0.297634656178    -76.363881958486

 Symmetry restored.
 Symmetry transformation completed.

 Number of N-1 electron functions:               4
 Number of N-2 electron functions:              10
 Number of singly external CSFs:               198
 Number of doubly external CSFs:             29292
 Total number of CSFs:                       29491

 Length of J-op  integral file:               8.97 MB
 Length of K-op  integral file:              13.62 MB
 Length of 3-ext integral record:             0.00 MB

 Memory could be reduced to 2.37 Mwords without degradation in triples

 Integral transformation finished. Total CPU:   0.06 sec, npass=  1  Memory used:   0.62 MW

 Reference energy:                    -76.06624730

 Adding F12 terms to K(Cij), methodcc=6,  factor= 1.0

 ITER.      SQ.NORM     CORR.ENERGY   TOTAL ENERGY   ENERGY CHANGE        DEN1      VAR(S)    VAR(P)  DIIS     TIME  TIME/IT
   1      1.05934025    -0.27103370   -76.33728100    -0.00065882     0.00472338  0.64D-03  0.86D-03  1  1     2.21     0.06
   2      1.06222142    -0.27075037   -76.33699767     0.00028333    -0.00420766  0.11D-04  0.86D-04  2  2     2.26     0.05
   3      1.06317770    -0.27085706   -76.33710436    -0.00010669    -0.00069857  0.71D-05  0.52D-05  3  3     2.30     0.05
   4      1.06360143    -0.27087573   -76.33712303    -0.00001867    -0.00029539  0.35D-06  0.41D-06  4  4     2.34     0.05
   5      1.06367352    -0.27087423   -76.33712154     0.00000150    -0.00001544  0.95D-07  0.24D-07  5  5     2.39     0.05
   6      1.06369292    -0.27087312   -76.33712042     0.00000112    -0.00000315  0.81D-08  0.24D-08  6  6     2.43     0.05
   7      1.06369798    -0.27087279   -76.33712009     0.00000033    -0.00000118  0.65D-09  0.18D-09  6  1     2.46     0.05
   8      1.06369914    -0.27087284   -76.33712014    -0.00000005    -0.00000000  0.45D-10  0.18D-10  6  2     2.50     0.05

 Norm of t1 vector:      0.03273870      S-energy:    -0.00000008      T1 diagnostic:  0.00818467
                                                                       D1 diagnostic:  0.01620077

 Adding energy correction from Wij-K(Fij), methodcc=6  factor= 1.0
 
  CCSD correlation energy              -0.270872841571
  MP2-F12 correction (uncoupled)       -0.025278449884
  C*T doubles correction               -0.000842893844
  f12b correction                       0.004255445504


 Total CPU time for triples:      0.18 sec


 RESULTS
 =======

  Reference energy                    -76.065169008630
  F12 singles correction               -0.001078293677

 F12 singles corrections added to reference energy

  New reference energy                -76.066247302308

  F12a singlet correction              -0.023372501493
  F12a triplet correction              -0.002748842235
  F12a total correction                -0.026121343728

 F12a corrections for ansatz F12/3C(FIX) added to CCSD energy
 
  CCSD-F12a singlet pair energy        -0.206489745534
  CCSD-F12a triplet pair energy        -0.090504360652
  CCSD-F12a correlation energy         -0.296994185299

  Triples (T) contribution             -0.008375052921
  Total correlation energy             -0.305369238220

  CCSD-F12a total energy              -76.363241487607
  CCSD[T]-F12a energy                 -76.371879820142
  CCSD-T-F12a energy                  -76.371503505576
 !CCSD(T)-F12a total energy           -76.371616540528

 F12b corrections for ansatz F12/3C(FIX) added to CCSD(T)-F12a energy

  CCSD-F12b singlet pair energy        -0.202547465650
  CCSD-F12b triplet pair energy        -0.090191195032
  CCSD-F12b correlation energy         -0.292738739796

  Triples (T) contribution             -0.008375052921
  Total correlation energy             -0.301113792717

  CCSD-F12b total energy              -76.358986042103
  CCSD[T]-F12b energy                 -76.367624374639
  CCSD-T-F12b energy                  -76.367248060072
 !CCSD(T)-F12b total energy           -76.367361095025

 Timing summary (sec):

 STEP                 CPU(USER)    SYS     CPU(TOT)    WALL
 Transformation          0.06      0.01      0.07      0.09
 CCSD iterations         0.37      0.06      0.43      0.46
 Triples                 0.18      0.01      0.19      0.19
 MP2-F12                 2.07      0.06      2.13      2.13
 F12b energy             0.04      0.01      0.05      0.04

 Program statistics:

 Available memory in ccsd:                49999786
 Min. memory needed in ccsd:                145972
 Max. memory used in ccsd:                  166319
 Max. memory used in cckext:                248663 ( 9 integral passes)



 **********************************************************************************************************************************
 DATASETS  * FILE   NREC   LENGTH (MB)   RECORD NAMES
              1      20       56.67       500      610      700      900      950      970     1000      129      960     1100   
                                          VAR    BASINP    GEOM    SYMINP    ZMAT    AOBASIS   BASIS     P2S    ABASIS      S 
                                         1400     1410     1200     1210     1080     1600     1650     1300     1700     1380   
                                           T        V       H0       H01     AOSYM     SMH    MOLCAS    ERIS     OPER     JKOP   

              2       6        2.97       700     1000      520     2100     7360     7350   
                                         GEOM     BASIS   MCVARS     RHF    F12ABS    EF12   

 PROGRAMS   *        TOTAL   CCSD(T)        HF       INT
 CPU TIMES  *         3.48      2.74      0.23      0.42
 REAL TIME  *         4.03 SEC
 DISK USED  *       125.48 MB      
 **********************************************************************************************************************************

 CCSD(T)-F12/cc-pVTZ-F12 energy=    -76.367361095025

     CCSD(T)-F12        HF-SCF  
    -76.36736110    -76.06516901
 **********************************************************************************************************************************
 Molpro calculation terminated
 Variable memory released
