
 Primary working directories    : /tmp/r2518/22838.maple
 Secondary working directories  : /tmp/r2518/22838.maple
 Wavefunction directory         : /ddn/home1/r2518/wfu/
 Main file repository           : /tmp/r2518/22838.maple/

 SHA1      : d5ffa45e93fdbca01ffc919aa182cfdae0147319
 NAME      : 2015.1.35
 ARCHNAME  : linux/x86_64
 FC        : /opt/intel/composer_xe_2015.1.133/bin/intel64/ifort
 BLASLIB   : -Wl,-_start-group /opt/intel/mkl/lib/intel64/libmkl_intel_ilp64.a /opt/intel/mkl/lib/intel64/libmkl_intel_thread.a /opt/intel/mkl/lib/intel64/libmkl_core.a -Wl,-_end-group
 id        : olemiss

 Nodes     nprocs
 cn055        1

 Using customized tuning parameters: mindgm=1; mindgv=20; mindgc=4; mindgr=1; noblas=0; minvec=7
 default implementation of scratch files=df  

 memory,50,m
 nocompress;
 geomtyp=xyz
 angstrom
 geometry={
 O,0.0,0.0,-0.015744156799999992
 H,0.0,0.7574590974,0.5217905143
 H,0.05,-0.7574590974,0.5217905143
 }
 basis=cc-pVTZ-F12
 set,charge=0
 set,spin=0
 hf
 {CCSD(T)-F12}

 Variables initialized (889), CPU time= 0.00 sec
 Commands  initialized (702), CPU time= 0.01 sec, 572 directives.
 Default parameters read. Elapsed time= 0.10 sec

 Checking input...
 Passed
1


                                         ***  PROGRAM SYSTEM MOLPRO  ***
                                       Copyright, TTI GmbH Stuttgart, 2015
                                    Version 2015.1 linked Jul  9 2018 13:16:40


 **********************************************************************************************************************************
 LABEL *                                                                                 
  64 bit serial version                                                                  DATE: 28-Aug-19          TIME: 15:37:26  
 **********************************************************************************************************************************

 SHA1:             d5ffa45e93fdbca01ffc919aa182cfdae0147319
 **********************************************************************************************************************************

 Input parameters for SORTINT:

 COMPRESS =    0.000000
 C_FINAL  =    1.000000
 DEBUG    =   -1.000000
 C_SORT1  =    0.000000
 C_SEWARD =    0.000000
 THRESH   =    0.000000
 IO       =  molpro                                                          
 SPRI     =    0.000000
 SETTING GEOMTYP        =    XYZ
 ZUNIT=ANG
 

 Variable memory set to   50000000 words,  buffer space   230000 words

 SETTING BASIS          =    CC-PVTZ-F12
 SETTING CHARGE         =     0.00000000D+00                                  
 SETTING SPIN           =     0.00000000D+00                                  


 Recomputing integrals since basis changed


 Using spherical harmonics

 Library entry O      S cc-pVTZ-F12          selected for orbital group  1
 Library entry O      P cc-pVTZ-F12          selected for orbital group  1
 Library entry O      D cc-pVTZ-F12          selected for orbital group  1
 Library entry O      F cc-pVTZ-F12          selected for orbital group  1
 Library entry H      S cc-pVTZ-F12          selected for orbital group  2
 Library entry H      P cc-pVTZ-F12          selected for orbital group  2
 Library entry H      D cc-pVTZ-F12          selected for orbital group  2


 PROGRAM * SEWARD (Integral evaluation for generally contracted gaussian basis sets)     Author: Roland Lindh, 1990

 Geometry written to block  1 of record 700


 Point group  C1  



 ATOMIC COORDINATES

 NR  ATOM    CHARGE       X              Y              Z

   1  O       8.00    0.000000000    0.000000000   -0.029752144
   2  H       1.00    0.000000000    1.431390245    0.986041166
   3  H       1.00    0.094486306   -1.431390245    0.986041166

 Bond lengths in Bohr (Angstrom)

 1-2  1.755196309  1-3  1.757737678
     ( 0.928809887)     ( 0.930154722)

 Bond angles

  2-1-3  109.24781159

 NUCLEAR CHARGE:                   10
 NUMBER OF PRIMITIVE AOS:         114
 NUMBER OF SYMMETRY AOS:          103
 NUMBER OF CONTRACTIONS:           89   (  89A   )
 NUMBER OF CORE ORBITALS:           1   (   1A   )
 NUMBER OF VALENCE ORBITALS:        6   (   6A   )


 NUCLEAR REPULSION ENERGY    9.45832021


 Eigenvalues of metric

         1 0.193E-03 0.405E-03 0.562E-03 0.687E-03 0.701E-03 0.772E-03 0.153E-02 0.192E-02


 Contracted 2-electron integrals neglected if value below      1.0D-11

        5883432. INTEGRALS WRITTEN OUT IN    1437 BLOCKS ON RECORD 1290 OF FILE 1


 NUMBER OF SORTED TWO-ELECTRON INTEGRALS:    8022015.     BUFFER LENGTH:  32768
 NUMBER OF SEGMENTS:   1  SEGMENT LENGTH:    8022015      RECORD LENGTH: 524288

 Memory used in sort:       8.58 MW

 SORT1 READ     5883432. AND WROTE     5883432. INTEGRALS IN     17 RECORDS. CPU TIME:     0.18 SEC, REAL TIME:     0.25 SEC
 SORT2 READ     5883432. AND WROTE     8022015. INTEGRALS IN      1 RECORDS. CPU TIME:     0.17 SEC, REAL TIME:     0.19 SEC

 FILE SIZES:   FILE 1:   114.4 MBYTE,  FILE 4:    71.3 MBYTE,   TOTAL:    185.7 MBYTE

 OPERATOR DM      FOR CENTER  0  COORDINATES:    0.000000    0.000000    0.000000


 **********************************************************************************************************************************
 DATASETS  * FILE   NREC   LENGTH (MB)   RECORD NAMES
              1      19       70.03       500      610      700      900      950      970     1000      129      960     1100   
                                          VAR    BASINP    GEOM    SYMINP    ZMAT    AOBASIS   BASIS     P2S    ABASIS      S 
                                         1400     1410     1200     1210     1080     1600     1650     1300     1700   
                                           T        V       H0       H01     AOSYM     SMH    MOLCAS    ERIS     OPER   

 PROGRAMS   *        TOTAL       INT
 CPU TIMES  *         0.89      0.79
 REAL TIME  *         1.77 SEC
 DISK USED  *       186.03 MB      
 **********************************************************************************************************************************


 PROGRAM * RHF-SCF (CLOSED SHELL)       Authors: W. Meyer, H.-J. Werner


 NUMBER OF ELECTRONS:       5+    5-    SPACE SYMMETRY=1    SPIN SYMMETRY: Singlet 
 CONVERGENCE THRESHOLDS:    1.00E-05 (Density)    1.00E-07 (Energy)
 MAX. NUMBER OF ITERATIONS:       60
 INTERPOLATION TYPE:            DIIS
 INTERPOLATION STEPS:              2 (START)      1 (STEP)
 LEVEL SHIFTS:                  0.00 (CLOSED)  0.00 (OPEN) 



 Orbital guess generated from atomic densities. Full valence occupancy:    7

 Molecular orbital dump at record        2100.2

 Initial occupancy:   5

 ITERATION    DDIFF          GRAD             ENERGY        2-EL.EN.            DIPOLE MOMENTS         DIIS   ORB.
    1      0.000D+00      0.000D+00       -76.02854477     78.095662    0.04873   -0.00044    1.04748    0    start
    2      0.000D+00      0.106D-01       -76.05517452     74.577241    0.03016    0.00015    0.64863    1    diag
    3      0.112D-01      0.639D-02       -76.06529608     76.092554    0.03467    0.00010    0.74553    2    diag
    4      0.372D-02      0.603D-03       -76.06546744     76.005258    0.03460    0.00017    0.74398    3    diag
    5      0.556D-03      0.154D-03       -76.06548193     76.017229    0.03456    0.00020    0.74326    4    diag
    6      0.179D-03      0.275D-04       -76.06548268     76.016537    0.03456    0.00020    0.74319    5    diag
    7      0.511D-04      0.484D-05       -76.06548270     76.016662    0.03455    0.00021    0.74312    6    diag
    8      0.105D-04      0.110D-05       -76.06548271     76.016660    0.03455    0.00021    0.74308    7    diag
    9      0.188D-05      0.151D-06       -76.06548271     76.016650    0.03455    0.00021    0.74308    0    orth

 Final occupancy:   5

 !RHF STATE 1.1 Energy                -76.065482706254
 Nuclear energy                         9.45832021
 One-electron energy                 -123.53212796
 Two-electron energy                   38.00832504
 Virial quotient                       -0.99953255
 !RHF STATE 1.1 Dipole moment           0.03455265     0.00020638     0.74307625
 Dipole moment /Debye                   0.08781831     0.00052452     1.88858772

 Orbital energies:

         1.1          2.1          3.1          4.1          5.1          6.1          7.1
    -20.557874    -1.364345    -0.742932    -0.580998    -0.511591     0.102469     0.118214

 HOMO      5.1    -0.511591 =     -13.9211eV
 LUMO      6.1     0.102469 =       2.7883eV
 LUMO-HOMO         0.614060 =      16.7094eV


 **********************************************************************************************************************************
 DATASETS  * FILE   NREC   LENGTH (MB)   RECORD NAMES
              1      19       70.03       500      610      700      900      950      970     1000      129      960     1100   
                                          VAR    BASINP    GEOM    SYMINP    ZMAT    AOBASIS   BASIS     P2S    ABASIS      S 
                                         1400     1410     1200     1210     1080     1600     1650     1300     1700   
                                           T        V       H0       H01     AOSYM     SMH    MOLCAS    ERIS     OPER   

              2       4        2.95       700     1000      520     2100   
                                         GEOM     BASIS   MCVARS     RHF  

 PROGRAMS   *        TOTAL        HF       INT
 CPU TIMES  *         1.64      0.75      0.79
 REAL TIME  *         2.61 SEC
 DISK USED  *       186.03 MB      
 **********************************************************************************************************************************


 PROGRAM * CCSD (Closed-shell coupled cluster)     Authors: C. Hampel, H.-J. Werner, 1991, M. Deegan, P.J. Knowles, 1992

                                  CCSD-F12 implementation by  H.-J. Werner, 2007

                   Density fitting integral evaluation by F.R. Manby, 2003,2007, G. Knizia, 2010

 Basis set AUG-CC-PVTZ/JKFIT generated.  Number of basis functions:   196 
 Basis set CC-PVTZ-F12/OPTRI generated.  Number of basis functions:   157 
 Basis set AUG-CC-PVTZ/MP2FIT generated. Number of basis functions:   198 

 Convergence thresholds:  THRVAR = 1.00D-08  THRDEN = 1.00D-06

 CCSD(T)     terms to be evaluated (factor= 1.000)


 Number of core orbitals:           1 (   1 )
 Number of closed-shell orbitals:   4 (   4 )
 Number of external orbitals:      84 (  84 )

 Molecular orbitals read from record     2100.2  Type=RHF/CANONICAL (state 1.1)

 MP2-F12 correlation treatment (H.-J. Werner, 2006)
 ==================================================

 Using MP2-F12 with ansatz 3C(FIX)

 Using projected zeroth-order Hamiltonian (+Z)

 FOCKRIB=T FOCKRIC=T FOCKRIP=T CABSP=T CABSA=T CABSK=T CABSF=T GBC=F EBC=F DMAT=T NOFIK=T NOPAO=1 SOLVE=-1  USEPAO=0
 EXCH_A= T EXCH_B= F EXCH_C= F EXCH_P= F
 
 Geminal basis:    OPTFULL  GEM_TYPE=SLATER  BETA=1.0  NGEM=6

 Optimizing Gaussian exponents for each gem_beta

 Geminal optimization for beta= 1.0000
 Weight function:   m=0, omega= 1.4646

 Augmented Hessian optimization of geminal fit. Trust ratio= 0.40000
 Convergence reached after   2 iterations. Final gradient= 8.41D-16, Step= 4.29D-06, Delta= 1.28D-09
 
 Alpha:                 0.19532     0.81920     2.85917     9.50073    35.69989   197.79328
 Coeff:                 0.27070     0.30552     0.18297     0.10986     0.06810     0.04224
 

 All pairs explicitly correlated. Number of r12-pairs:           10

 Excluding core orbitals from MO domains
 
 AO(A)-basis ORBITAL           loaded. Number of functions:      89
 RI(R)-basis CC-PVTZ-F12/OPTRI loaded. Number of functions:     157
 DF-basis AUG-CC-PVTZ/JKFIT    loaded. Number of functions:     196

 Screening thresholds:   THRAO=  1.00D-10  THRMO=  1.00D-09  THRPROD=  1.00D-09
                         THRSW=  1.00D-05  THROV=  1.00D-12  THRAOF12=   1.00D-08

 CPU time for Fock operators                      0.43 sec
 
 Construction of ABS:
 Smallest eigenvalue of S          6.98E-04  (threshold= 1.00E-08)
 Ratio eigmin/eigmax               1.16E-04  (threshold= 1.00E-09)
 Smallest eigenvalue of S kept     6.98E-04  (threshold= 6.98E-04, 0 functions deleted, 157 kept)
 
 Construction of CABS:
 Smallest eigenvalue of S          1.60E-06  (threshold= 1.00E-08)
 Ratio eigmin/eigmax               1.60E-06  (threshold= 1.00E-09)
 Smallest eigenvalue of S kept     1.60E-06  (threshold= 1.60E-06, 0 functions deleted, 157 kept)
 
 CPU time for CABS singles                        0.01 sec

 CABS-singles contribution of  -0.00106250 patched into reference energy.
 New reference energy         -76.06654521
 
 AO(A)-basis ORBITAL           loaded. Number of functions:      89
 RI(R)-basis CC-PVTZ-F12/OPTRI loaded. Number of functions:     157
 DF-basis AUG-CC-PVTZ/MP2FIT   loaded. Number of functions:     198

 Screening thresholds:   THRAO=  1.00D-10  THRMO=  1.00D-09  THRPROD=  1.00D-09
                         THRSW=  1.00D-05  THROV=  1.00D-12  THRAOF12=   1.00D-08

 CPU time for 3-index integral evaluation         0.58 sec
 CPU time for first  half transformation          0.04 sec ( 4409.0 MFLOP/sec)
 CPU time for fitting                             0.01 sec ( 8185.8 MFLOP/sec)
 CPU time for tilde quantities                    0.02 sec ( 5410.2 MFLOP/sec)
 CPU time for assembly                            0.01 sec (53512.5 MFLOP/sec)
 CPU time for tranop_f12                          0.03 sec (21731.0 MFLOP/sec)
 CPU time for f12 integrals (total)               0.73 sec, Elapsed time:      0.77 sec
 CPU time for f12 matrices (total)                0.01 sec, Elapsed time:      0.01 sec

 Diagonal F12 approximation with fixed coefficients:  TSING= 0.500,  TTRIP= 0.250 (scaled by -1/beta)

 DF-MP2-F12 energy corrections:
 ==============================
 Approx.                                    Singlet             Triplet             Total
 DF-MP2-F12/3*C(DX,FIX)                -0.025454668719     -0.003053371945     -0.028508040664
 DF-MP2-F12/3*C(FIX)                   -0.023610446174     -0.002752884360     -0.026363330534
 DF-MP2-F12/3C(FIX)                    -0.023532619701     -0.002849228372     -0.026381848073

 DF-MP2-F12 correlation energies:
 ================================
 Approx.                                    Singlet             Triplet             Ecorr            Total Energy
 DF-MP2                                -0.172170433195     -0.098343713958     -0.270514147152    -76.337059352297
 DF-MP2-F12/3*C(DX,FIX)                -0.197625101914     -0.101397085903     -0.299022187817    -76.365567392961
 DF-MP2-F12/3*C(FIX)                   -0.195780879368     -0.101096598318     -0.296877477686    -76.363422682830
 DF-MP2-F12/3C(FIX)                    -0.195703052895     -0.101192942330     -0.296895995226    -76.363441200370

 SCS-DF-MP2 energies (F_SING= 1.20000  F_TRIP= 0.62222  F_PARALLEL= 0.33333):
 ============================================================================
 SCS-DF-MP2                            -0.267796164074    -76.334341369218
 SCS-DF-MP2-F12/3*C(DX,FIX)            -0.300241642414    -76.366786847558
 SCS-DF-MP2-F12/3*C(FIX)               -0.297841605306    -76.364386810450
 SCS-DF-MP2-F12/3C(FIX)                -0.297808160924    -76.364353366068
 Symmetry transformation completed.

 Number of N-1 electron functions:               4
 Number of N-2 electron functions:              10
 Number of singly external CSFs:               336
 Number of doubly external CSFs:             56616
 Total number of CSFs:                       56953

 Length of J-op  integral file:               9.11 MB
 Length of K-op  integral file:              14.70 MB
 Length of 3-ext integral record:             0.00 MB

 Memory could be reduced to 4.35 Mwords without degradation in triples

 Integral transformation finished. Total CPU:   0.18 sec, npass=  1  Memory used:   2.09 MW

 Reference energy:                    -76.06654521

 Adding F12 terms to K(Cij), methodcc=6,  factor= 1.0

 ITER.      SQ.NORM     CORR.ENERGY   TOTAL ENERGY   ENERGY CHANGE        DEN1      VAR(S)    VAR(P)  DIIS     TIME  TIME/IT
   1      1.05954943    -0.27117525   -76.33772045    -0.00061888     0.00478554  0.64D-03  0.87D-03  1  1     1.56     0.16
   2      1.06245687    -0.27089878   -76.33744399     0.00027647    -0.00422804  0.11D-04  0.87D-04  2  2     1.71     0.16
   3      1.06342682    -0.27100736   -76.33755257    -0.00010858    -0.00070652  0.72D-05  0.53D-05  3  3     1.87     0.17
   4      1.06385588    -0.27102628   -76.33757149    -0.00001892    -0.00029796  0.35D-06  0.42D-06  4  4     2.01     0.17
   5      1.06392908    -0.27102479   -76.33757000     0.00000149    -0.00001564  0.98D-07  0.24D-07  5  5     2.17     0.17
   6      1.06394885    -0.27102367   -76.33756888     0.00000112    -0.00000325  0.81D-08  0.25D-08  6  6     2.33     0.17
   7      1.06395402    -0.27102334   -76.33756855     0.00000033    -0.00000120  0.67D-09  0.18D-09  6  1     2.48     0.17
   8      1.06395519    -0.27102340   -76.33756860    -0.00000005    -0.00000000  0.48D-10  0.18D-10  6  2     2.63     0.17

 Norm of t1 vector:      0.03281054      S-energy:    -0.00000008      T1 diagnostic:  0.00820264
                                                                       D1 diagnostic:  0.01618811

 Adding energy correction from Wij-K(Fij), methodcc=6  factor= 1.0
 
  CCSD correlation energy              -0.271023398379
  MP2-F12 correction (uncoupled)       -0.025268077463
  C*T doubles correction               -0.000840872673
  f12b correction                       0.004260516883


 Total CPU time for triples:      1.32 sec


 RESULTS
 =======

  Reference energy                    -76.065482706254
  F12 singles correction               -0.001062498890

 F12 singles corrections added to reference energy

  New reference energy                -76.066545205144

  F12a singlet correction              -0.023365383679
  F12a triplet correction              -0.002743566457
  F12a total correction                -0.026108950136

 F12a corrections for ansatz F12/3C(FIX) added to CCSD energy
 
  CCSD-F12a singlet pair energy        -0.206634354994
  CCSD-F12a triplet pair energy        -0.090497909905
  CCSD-F12a correlation energy         -0.297132348515

  Triples (T) contribution             -0.008405215336
  Total correlation energy             -0.305537563852

  CCSD-F12a total energy              -76.363677553659
  CCSD[T]-F12a energy                 -76.372347625129
  CCSD-T-F12a energy                  -76.371969227676
 !CCSD(T)-F12a total energy           -76.372082768996

 F12b corrections for ansatz F12/3C(FIX) added to CCSD(T)-F12a energy

  CCSD-F12b singlet pair energy        -0.202686878789
  CCSD-F12b triplet pair energy        -0.090184869226
  CCSD-F12b correlation energy         -0.292871831632

  Triples (T) contribution             -0.008405215336
  Total correlation energy             -0.301277046968

  CCSD-F12b total energy              -76.359417036776
  CCSD[T]-F12b energy                 -76.368087108246
  CCSD-T-F12b energy                  -76.367708710792
 !CCSD(T)-F12b total energy           -76.367822252113

 Timing summary (sec):

 STEP                 CPU(USER)    SYS     CPU(TOT)    WALL
 Transformation          0.18      0.04      0.22      0.22
 CCSD iterations         1.26      0.15      1.41      1.40
 Triples                 1.32      0.02      1.34      1.34
 MP2-F12                 1.19      0.07      1.26      1.26
 F12b energy             0.13      0.00      0.13      0.14

 Program statistics:

 Available memory in ccsd:                49999786
 Min. memory needed in ccsd:                269472
 Max. memory used in ccsd:                  308684
 Max. memory used in cckext:                227914 ( 9 integral passes)



 **********************************************************************************************************************************
 DATASETS  * FILE   NREC   LENGTH (MB)   RECORD NAMES
              1      20       80.71       500      610      700      900      950      970     1000      129      960     1100   
                                          VAR    BASINP    GEOM    SYMINP    ZMAT    AOBASIS   BASIS     P2S    ABASIS      S 
                                         1400     1410     1200     1210     1080     1600     1650     1300     1700     1380   
                                           T        V       H0       H01     AOSYM     SMH    MOLCAS    ERIS     OPER     JKOP   

              2       6        3.11       700     1000      520     2100     7360     7350   
                                         GEOM     BASIS   MCVARS     RHF    F12ABS    EF12   

 PROGRAMS   *        TOTAL   CCSD(T)        HF       INT
 CPU TIMES  *         5.76      4.12      0.75      0.79
 REAL TIME  *         7.35 SEC
 DISK USED  *       186.03 MB      
 **********************************************************************************************************************************

 CCSD(T)-F12/cc-pVTZ-F12 energy=    -76.367822252113

     CCSD(T)-F12        HF-SCF  
    -76.36782225    -76.06548271
 **********************************************************************************************************************************
 Molpro calculation terminated
 Variable memory released
