
 Primary working directories    : /tmp/r2518/22849.maple
 Secondary working directories  : /tmp/r2518/22849.maple
 Wavefunction directory         : /ddn/home1/r2518/wfu/
 Main file repository           : /tmp/r2518/22849.maple/

 SHA1      : d5ffa45e93fdbca01ffc919aa182cfdae0147319
 NAME      : 2015.1.35
 ARCHNAME  : linux/x86_64
 FC        : /opt/intel/composer_xe_2015.1.133/bin/intel64/ifort
 BLASLIB   : -Wl,-_start-group /opt/intel/mkl/lib/intel64/libmkl_intel_ilp64.a /opt/intel/mkl/lib/intel64/libmkl_intel_thread.a /opt/intel/mkl/lib/intel64/libmkl_core.a -Wl,-_end-group
 id        : olemiss

 Nodes     nprocs
 cn054        1

 Using customized tuning parameters: mindgm=1; mindgv=20; mindgc=4; mindgr=1; noblas=0; minvec=7
 default implementation of scratch files=df  

 memory,50,m
 nocompress;
 geomtyp=xyz
 angstrom
 geometry={
 O,0.0,0.0,-0.0657441568
 H,0.0,0.8074590974,0.5217905143
 H,0.0,-0.7574590974,0.5717905143
 }
 basis=cc-pVTZ-F12
 set,charge=0
 set,spin=0
 hf
 {CCSD(T)-F12}

 Variables initialized (889), CPU time= 0.00 sec
 Commands  initialized (702), CPU time= 0.01 sec, 572 directives.
 Default parameters read. Elapsed time= 0.07 sec

 Checking input...
 Passed
1


                                         ***  PROGRAM SYSTEM MOLPRO  ***
                                       Copyright, TTI GmbH Stuttgart, 2015
                                    Version 2015.1 linked Jul  9 2018 13:16:40


 **********************************************************************************************************************************
 LABEL *                                                                                 
  64 bit serial version                                                                  DATE: 28-Aug-19          TIME: 15:37:26  
 **********************************************************************************************************************************

 SHA1:             d5ffa45e93fdbca01ffc919aa182cfdae0147319
 **********************************************************************************************************************************

 Input parameters for SORTINT:

 COMPRESS =    0.000000
 C_FINAL  =    1.000000
 DEBUG    =   -1.000000
 C_SORT1  =    0.000000
 C_SEWARD =    0.000000
 THRESH   =    0.000000
 IO       =  molpro                                                          
 SPRI     =    0.000000
 SETTING GEOMTYP        =    XYZ
 ZUNIT=ANG
 

 Variable memory set to   50000000 words,  buffer space   230000 words

 SETTING BASIS          =    CC-PVTZ-F12
 SETTING CHARGE         =     0.00000000D+00                                  
 SETTING SPIN           =     0.00000000D+00                                  


 Recomputing integrals since basis changed


 Using spherical harmonics

 Library entry O      S cc-pVTZ-F12          selected for orbital group  1
 Library entry O      P cc-pVTZ-F12          selected for orbital group  1
 Library entry O      D cc-pVTZ-F12          selected for orbital group  1
 Library entry O      F cc-pVTZ-F12          selected for orbital group  1
 Library entry H      S cc-pVTZ-F12          selected for orbital group  2
 Library entry H      P cc-pVTZ-F12          selected for orbital group  2
 Library entry H      D cc-pVTZ-F12          selected for orbital group  2


 PROGRAM * SEWARD (Integral evaluation for generally contracted gaussian basis sets)     Author: Roland Lindh, 1990

 Geometry written to block  1 of record 700


 Point group  Cs  



 ATOMIC COORDINATES

 NR  ATOM    CHARGE       X              Y              Z

   1  O       8.00    0.000000000    0.000000000   -0.124238451
   2  H       1.00    0.000000000    1.525876551    0.986041166
   3  H       1.00    0.000000000   -1.431390245    1.080527473

 Bond lengths in Bohr (Angstrom)

 1-2  1.887066527  1-3  1.870919283
     ( 0.998592601)     ( 0.990047848)

 Bond angles

  2-1-3  103.87259808

 NUCLEAR CHARGE:                   10
 NUMBER OF PRIMITIVE AOS:         114
 NUMBER OF SYMMETRY AOS:          103
 NUMBER OF CONTRACTIONS:           89   (  61A'  +  28A"  )
 NUMBER OF CORE ORBITALS:           1   (   1A'  +   0A"  )
 NUMBER OF VALENCE ORBITALS:        6   (   5A'  +   1A"  )


 NUCLEAR REPULSION ENERGY    8.85333462

 Eigenvalues of metric

         1 0.243E-03 0.491E-03 0.586E-03 0.723E-03 0.832E-03 0.165E-02 0.212E-02 0.234E-02
         2 0.696E-03 0.102E-01 0.119E-01 0.460E-01 0.846E-01 0.904E-01 0.139E+00 0.198E+00


 Contracted 2-electron integrals neglected if value below      1.0D-11

        3676673. INTEGRALS WRITTEN OUT IN     898 BLOCKS ON RECORD 1290 OF FILE 1


 NUMBER OF SORTED TWO-ELECTRON INTEGRALS:    4174745.     BUFFER LENGTH:  32768
 NUMBER OF SEGMENTS:   1  SEGMENT LENGTH:    4174745      RECORD LENGTH: 524288

 Memory used in sort:       4.73 MW

 SORT1 READ     3676673. AND WROTE     3739789. INTEGRALS IN     11 RECORDS. CPU TIME:     0.13 SEC, REAL TIME:     0.16 SEC
 SORT2 READ     3739789. AND WROTE     4174745. INTEGRALS IN      1 RECORDS. CPU TIME:     0.10 SEC, REAL TIME:     0.14 SEC

 FILE SIZES:   FILE 1:    79.0 MBYTE,  FILE 4:    46.2 MBYTE,   TOTAL:    125.2 MBYTE

 OPERATOR DM      FOR CENTER  0  COORDINATES:    0.000000    0.000000    0.000000


 **********************************************************************************************************************************
 DATASETS  * FILE   NREC   LENGTH (MB)   RECORD NAMES
              1      19       51.17       500      610      700      900      950      970     1000      129      960     1100   
                                          VAR    BASINP    GEOM    SYMINP    ZMAT    AOBASIS   BASIS     P2S    ABASIS      S 
                                         1400     1410     1200     1210     1080     1600     1650     1300     1700   
                                           T        V       H0       H01     AOSYM     SMH    MOLCAS    ERIS     OPER   

 PROGRAMS   *        TOTAL       INT
 CPU TIMES  *         0.71      0.61
 REAL TIME  *         1.18 SEC
 DISK USED  *       125.48 MB      
 **********************************************************************************************************************************


 PROGRAM * RHF-SCF (CLOSED SHELL)       Authors: W. Meyer, H.-J. Werner


 NUMBER OF ELECTRONS:       5+    5-
 CONVERGENCE THRESHOLDS:    1.00E-05 (Density)    1.00E-07 (Energy)
 MAX. NUMBER OF ITERATIONS:       60
 INTERPOLATION TYPE:            DIIS
 INTERPOLATION STEPS:              2 (START)      1 (STEP)
 LEVEL SHIFTS:                  0.00 (CLOSED)  0.00 (OPEN) 



 Orbital guess generated from atomic densities. Full valence occupancy:    6   1

 Molecular orbital dump at record        2100.2

 Initial occupancy:   4   1

 ITERATION    DDIFF          GRAD             ENERGY        2-EL.EN.            DIPOLE MOMENTS         DIIS   ORB.
    1      0.000D+00      0.000D+00       -76.02091488     77.189939    0.00000    0.05134    1.18717    0    start
    2      0.000D+00      0.136D-01       -76.04783016     73.483956    0.00000    0.02680    0.68177    1    diag
    3      0.146D-01      0.882D-02       -76.05995010     75.144980    0.00000    0.03239    0.80851    2    diag
    4      0.521D-02      0.825D-03       -76.06015542     75.051027    0.00000    0.03159    0.80262    3    diag
    5      0.744D-03      0.239D-03       -76.06017942     75.066507    0.00000    0.03126    0.80041    4    diag
    6      0.278D-03      0.489D-04       -76.06018107     75.065266    0.00000    0.03115    0.79979    5    diag
    7      0.812D-04      0.101D-04       -76.06018115     75.065426    0.00000    0.03113    0.79961    6    diag
    8      0.183D-04      0.182D-05       -76.06018115     75.065410    0.00000    0.03112    0.79957    7    diag
    9      0.331D-05      0.242D-06       -76.06018115     75.065395    0.00000    0.03112    0.79956    0    orth

 Final occupancy:   4   1

 !RHF STATE 1.1 Energy                -76.060181154831
 Nuclear energy                         8.85333462
 One-electron energy                 -122.44621306
 Two-electron energy                   37.53269729
 Virial quotient                       -1.00264893
 !RHF STATE 1.1 Dipole moment           0.00000000     0.03112044     0.79956367
 Dipole moment /Debye                   0.00000000     0.07909508     2.03215503

 Orbital energies:

         1.1          2.1          3.1          4.1          5.1          6.1
    -20.571516    -1.335067    -0.696887    -0.579110     0.102562     0.121896

         1.2          2.2          3.2
     -0.507830     0.145679     0.479244

 HOMO      1.2    -0.507830 =     -13.8187eV
 LUMO      5.1     0.102562 =       2.7908eV
 LUMO-HOMO         0.610391 =      16.6096eV


 **********************************************************************************************************************************
 DATASETS  * FILE   NREC   LENGTH (MB)   RECORD NAMES
              1      19       51.17       500      610      700      900      950      970     1000      129      960     1100   
                                          VAR    BASINP    GEOM    SYMINP    ZMAT    AOBASIS   BASIS     P2S    ABASIS      S 
                                         1400     1410     1200     1210     1080     1600     1650     1300     1700   
                                           T        V       H0       H01     AOSYM     SMH    MOLCAS    ERIS     OPER   

              2       4        2.88       700     1000      520     2100   
                                         GEOM     BASIS   MCVARS     RHF  

 PROGRAMS   *        TOTAL        HF       INT
 CPU TIMES  *         1.00      0.29      0.61
 REAL TIME  *         1.54 SEC
 DISK USED  *       125.48 MB      
 **********************************************************************************************************************************


 PROGRAM * CCSD (Closed-shell coupled cluster)     Authors: C. Hampel, H.-J. Werner, 1991, M. Deegan, P.J. Knowles, 1992

                                  CCSD-F12 implementation by  H.-J. Werner, 2007

                   Density fitting integral evaluation by F.R. Manby, 2003,2007, G. Knizia, 2010

 Basis set AUG-CC-PVTZ/JKFIT generated.  Number of basis functions:   196 
 Basis set CC-PVTZ-F12/OPTRI generated.  Number of basis functions:   157 
 Basis set AUG-CC-PVTZ/MP2FIT generated. Number of basis functions:   198 

 Convergence thresholds:  THRVAR = 1.00D-08  THRDEN = 1.00D-06

 CCSD(T)     terms to be evaluated (factor= 1.000)


 Number of core orbitals:           1 (   1   0 )
 Number of closed-shell orbitals:   4 (   3   1 )
 Number of external orbitals:      84 (  57  27 )

 Molecular orbitals read from record     2100.2  Type=RHF/CANONICAL (state 1.1)

 MP2-F12 correlation treatment (H.-J. Werner, 2006)
 ==================================================

 Using MP2-F12 with ansatz 3C(FIX)

 Using projected zeroth-order Hamiltonian (+Z)

 FOCKRIB=T FOCKRIC=T FOCKRIP=T CABSP=T CABSA=T CABSK=T CABSF=T GBC=F EBC=F DMAT=T NOFIK=T NOPAO=1 SOLVE=-1  USEPAO=0
 EXCH_A= T EXCH_B= F EXCH_C= F EXCH_P= F
 
 Geminal basis:    OPTFULL  GEM_TYPE=SLATER  BETA=1.0  NGEM=6

 Optimizing Gaussian exponents for each gem_beta

 Geminal optimization for beta= 1.0000
 Weight function:   m=0, omega= 1.4646

 Augmented Hessian optimization of geminal fit. Trust ratio= 0.40000
 Convergence reached after   2 iterations. Final gradient= 8.41D-16, Step= 4.29D-06, Delta= 1.28D-09
 
 Alpha:                 0.19532     0.81920     2.85917     9.50073    35.69989   197.79328
 Coeff:                 0.27070     0.30552     0.18297     0.10986     0.06810     0.04224
 

 Symmetry turned off. Reference energy:        -76.060181154831

 All pairs explicitly correlated. Number of r12-pairs:           10

 Excluding core orbitals from MO domains
 
 AO(A)-basis ORBITAL           loaded. Number of functions:      89
 RI(R)-basis CC-PVTZ-F12/OPTRI loaded. Number of functions:     157
 DF-basis AUG-CC-PVTZ/JKFIT    loaded. Number of functions:     196

 Screening thresholds:   THRAO=  1.00D-10  THRMO=  1.00D-09  THRPROD=  1.00D-09
                         THRSW=  1.00D-05  THROV=  1.00D-12  THRAOF12=   1.00D-08

 CPU time for Fock operators                      1.08 sec
 
 Construction of ABS:
 Smallest eigenvalue of S          9.11E-04  (threshold= 1.00E-08)
 Ratio eigmin/eigmax               1.54E-04  (threshold= 1.00E-09)
 Smallest eigenvalue of S kept     9.11E-04  (threshold= 9.11E-04, 0 functions deleted, 157 kept)
 
 Construction of CABS:
 Smallest eigenvalue of S          2.29E-06  (threshold= 1.00E-08)
 Ratio eigmin/eigmax               2.29E-06  (threshold= 1.00E-09)
 Smallest eigenvalue of S kept     2.29E-06  (threshold= 2.29E-06, 0 functions deleted, 157 kept)
 
 CPU time for CABS singles                        0.01 sec

 CABS-singles contribution of  -0.00094331 patched into reference energy.
 New reference energy         -76.06112447
 
 AO(A)-basis ORBITAL           loaded. Number of functions:      89
 RI(R)-basis CC-PVTZ-F12/OPTRI loaded. Number of functions:     157
 DF-basis AUG-CC-PVTZ/MP2FIT   loaded. Number of functions:     198

 Screening thresholds:   THRAO=  1.00D-10  THRMO=  1.00D-09  THRPROD=  1.00D-09
                         THRSW=  1.00D-05  THROV=  1.00D-12  THRAOF12=   1.00D-08

 CPU time for 3-index integral evaluation         0.58 sec
 CPU time for first  half transformation          0.05 sec ( 3527.2 MFLOP/sec)
 CPU time for fitting                             0.01 sec ( 8185.8 MFLOP/sec)
 CPU time for assembly                            0.01 sec (53512.5 MFLOP/sec)
 CPU time for tranop_f12                          0.04 sec (16298.2 MFLOP/sec)
 CPU time for f12 integrals (total)               1.60 sec, Elapsed time:      1.64 sec
 CPU time for f12 matrices (total)                0.01 sec, Elapsed time:      0.01 sec

 Diagonal F12 approximation with fixed coefficients:  TSING= 0.500,  TTRIP= 0.250 (scaled by -1/beta)

 DF-MP2-F12 energy corrections:
 ==============================
 Approx.                                    Singlet             Triplet             Total
 DF-MP2-F12/3*C(DX,FIX)                -0.025067434681     -0.002987038881     -0.028054473561
 DF-MP2-F12/3*C(FIX)                   -0.023323976358     -0.002707050449     -0.026031026808
 DF-MP2-F12/3C(FIX)                    -0.023249474374     -0.002802812813     -0.026052287187

 DF-MP2-F12 correlation energies:
 ================================
 Approx.                                    Singlet             Triplet             Ecorr            Total Energy
 DF-MP2                                -0.175804116862     -0.100216822797     -0.276020939659    -76.337145406724
 DF-MP2-F12/3*C(DX,FIX)                -0.200871551543     -0.103203861677     -0.304075413220    -76.365199880285
 DF-MP2-F12/3*C(FIX)                   -0.199128093220     -0.102923873246     -0.302051966467    -76.363176433532
 DF-MP2-F12/3C(FIX)                    -0.199053591236     -0.103019635610     -0.302073226846    -76.363197693911

 SCS-DF-MP2 energies (F_SING= 1.20000  F_TRIP= 0.62222  F_PARALLEL= 0.33333):
 ============================================================================
 SCS-DF-MP2                            -0.273322074419    -76.334446541484
 SCS-DF-MP2-F12/3*C(DX,FIX)            -0.305261598006    -76.366386065071
 SCS-DF-MP2-F12/3*C(FIX)               -0.302995232995    -76.364119700060
 SCS-DF-MP2-F12/3C(FIX)                -0.302965416085    -76.364089883150

 Symmetry restored.
 Symmetry transformation completed.

 Number of N-1 electron functions:               4
 Number of N-2 electron functions:              10
 Number of singly external CSFs:               198
 Number of doubly external CSFs:             29292
 Total number of CSFs:                       29491

 Length of J-op  integral file:               8.97 MB
 Length of K-op  integral file:              13.62 MB
 Length of 3-ext integral record:             0.00 MB

 Memory could be reduced to 2.37 Mwords without degradation in triples

 Integral transformation finished. Total CPU:   0.09 sec, npass=  1  Memory used:   0.62 MW

 Reference energy:                    -76.06112447

 Adding F12 terms to K(Cij), methodcc=6,  factor= 1.0

 ITER.      SQ.NORM     CORR.ENERGY   TOTAL ENERGY   ENERGY CHANGE        DEN1      VAR(S)    VAR(P)  DIIS     TIME  TIME/IT
   1      1.06373849    -0.27598171   -76.33710618     0.00008270     0.00628978  0.81D-03  0.11D-02  1  1     3.03     0.07
   2      1.06731072    -0.27573226   -76.33685673     0.00024945    -0.00484014  0.15D-04  0.12D-03  2  2     3.10     0.07
   3      1.06862114    -0.27587748   -76.33700195    -0.00014522    -0.00086485  0.99D-05  0.80D-05  3  3     3.17     0.07
   4      1.06923033    -0.27590137   -76.33702583    -0.00002388    -0.00038926  0.48D-06  0.63D-06  4  4     3.24     0.07
   5      1.06933393    -0.27589983   -76.33702430     0.00000154    -0.00002291  0.14D-06  0.40D-07  5  5     3.31     0.07
   6      1.06936194    -0.27589844   -76.33702290     0.00000139    -0.00000475  0.12D-07  0.40D-08  6  6     3.37     0.08
   7      1.06936903    -0.27589803   -76.33702250     0.00000040    -0.00000159  0.11D-08  0.31D-09  6  1     3.42     0.08
   8      1.06937066    -0.27589810   -76.33702256    -0.00000006    -0.00000001  0.96D-10  0.36D-10  6  2     3.48     0.08

 Norm of t1 vector:      0.03737374      S-energy:    -0.00000013      T1 diagnostic:  0.00934344
                                                                       D1 diagnostic:  0.01881889

 Adding energy correction from Wij-K(Fij), methodcc=6  factor= 1.0
 
  CCSD correlation energy              -0.275898095640
  MP2-F12 correction (uncoupled)       -0.024922898520
  C*T doubles correction               -0.000841487499
  f12b correction                       0.004291816430


 Total CPU time for triples:      0.43 sec


 RESULTS
 =======

  Reference energy                    -76.060181154831
  F12 singles correction               -0.000943312234

 F12 singles corrections added to reference energy

  New reference energy                -76.061124467065

  F12a singlet correction              -0.023067898966
  F12a triplet correction              -0.002696487053
  F12a total correction                -0.025764386019

 F12a corrections for ansatz F12/3C(FIX) added to CCSD energy
 
  CCSD-F12a singlet pair energy        -0.210706165617
  CCSD-F12a triplet pair energy        -0.090956184660
  CCSD-F12a correlation energy         -0.301662481659

  Triples (T) contribution             -0.009092277787
  Total correlation energy             -0.310754759446

  CCSD-F12a total energy              -76.362786948724
  CCSD[T]-F12a energy                 -76.372202046147
  CCSD-T-F12a energy                  -76.371736842738
 !CCSD(T)-F12a total energy           -76.371879226511

 F12b corrections for ansatz F12/3C(FIX) added to CCSD(T)-F12a energy

  CCSD-F12b singlet pair energy        -0.206724317685
  CCSD-F12b triplet pair energy        -0.090646216162
  CCSD-F12b correlation energy         -0.297370665229

  Triples (T) contribution             -0.009092277787
  Total correlation energy             -0.306462943017

  CCSD-F12b total energy              -76.358495132294
  CCSD[T]-F12b energy                 -76.367910229717
  CCSD-T-F12b energy                  -76.367445026308
 !CCSD(T)-F12b total energy           -76.367587410082

 Timing summary (sec):

 STEP                 CPU(USER)    SYS     CPU(TOT)    WALL
 Transformation          0.09      0.01      0.10      0.09
 CCSD iterations         0.55      0.11      0.66      0.68
 Triples                 0.43      0.01      0.44      0.44
 MP2-F12                 2.84      0.08      2.92      2.92
 F12b energy             0.05      0.01      0.06      0.06

 Program statistics:

 Available memory in ccsd:                49999786
 Min. memory needed in ccsd:                145972
 Max. memory used in ccsd:                  166319
 Max. memory used in cckext:                248663 ( 9 integral passes)



 **********************************************************************************************************************************
 DATASETS  * FILE   NREC   LENGTH (MB)   RECORD NAMES
              1      20       56.67       500      610      700      900      950      970     1000      129      960     1100   
                                          VAR    BASINP    GEOM    SYMINP    ZMAT    AOBASIS   BASIS     P2S    ABASIS      S 
                                         1400     1410     1200     1210     1080     1600     1650     1300     1700     1380   
                                           T        V       H0       H01     AOSYM     SMH    MOLCAS    ERIS     OPER     JKOP   

              2       6        2.97       700     1000      520     2100     7360     7350   
                                         GEOM     BASIS   MCVARS     RHF    F12ABS    EF12   

 PROGRAMS   *        TOTAL   CCSD(T)        HF       INT
 CPU TIMES  *         4.99      3.99      0.29      0.61
 REAL TIME  *         6.11 SEC
 DISK USED  *       125.48 MB      
 **********************************************************************************************************************************

 CCSD(T)-F12/cc-pVTZ-F12 energy=    -76.367587410082

     CCSD(T)-F12        HF-SCF  
    -76.36758741    -76.06018115
 **********************************************************************************************************************************
 Molpro calculation terminated
 Variable memory released
