
 Primary working directories    : /tmp/r2518/22950.maple
 Secondary working directories  : /tmp/r2518/22950.maple
 Wavefunction directory         : /ddn/home1/r2518/wfu/
 Main file repository           : /tmp/r2518/22950.maple/

 SHA1      : d5ffa45e93fdbca01ffc919aa182cfdae0147319
 NAME      : 2015.1.35
 ARCHNAME  : linux/x86_64
 FC        : /opt/intel/composer_xe_2015.1.133/bin/intel64/ifort
 BLASLIB   : -Wl,-_start-group /opt/intel/mkl/lib/intel64/libmkl_intel_ilp64.a /opt/intel/mkl/lib/intel64/libmkl_intel_thread.a /opt/intel/mkl/lib/intel64/libmkl_core.a -Wl,-_end-group
 id        : olemiss

 Nodes     nprocs
 cn031        1

 Using customized tuning parameters: mindgm=1; mindgv=20; mindgc=4; mindgr=1; noblas=0; minvec=7
 default implementation of scratch files=df  

 memory,50,m
 nocompress;
 geomtyp=xyz
 angstrom
 geometry={
 O,0.0,0.0,-0.0657441568
 H,0.0,0.8074590974,0.5217905143
 H,0.0,-0.8074590974,0.5217905143
 }
 basis=cc-pVTZ-F12
 set,charge=0
 set,spin=0
 hf
 {CCSD(T)-F12}

 Variables initialized (889), CPU time= 0.00 sec
 Commands  initialized (702), CPU time= 0.01 sec, 572 directives.
 Default parameters read. Elapsed time= 0.06 sec

 Checking input...
 Passed
1


                                         ***  PROGRAM SYSTEM MOLPRO  ***
                                       Copyright, TTI GmbH Stuttgart, 2015
                                    Version 2015.1 linked Jul  9 2018 13:16:40


 **********************************************************************************************************************************
 LABEL *                                                                                 
  64 bit serial version                                                                  DATE: 28-Aug-19          TIME: 15:37:44  
 **********************************************************************************************************************************

 SHA1:             d5ffa45e93fdbca01ffc919aa182cfdae0147319
 **********************************************************************************************************************************

 Input parameters for SORTINT:

 COMPRESS =    0.000000
 C_FINAL  =    1.000000
 DEBUG    =   -1.000000
 C_SORT1  =    0.000000
 C_SEWARD =    0.000000
 THRESH   =    0.000000
 IO       =  molpro                                                          
 SPRI     =    0.000000
 SETTING GEOMTYP        =    XYZ
 ZUNIT=ANG
 

 Variable memory set to   50000000 words,  buffer space   230000 words

 SETTING BASIS          =    CC-PVTZ-F12
 SETTING CHARGE         =     0.00000000D+00                                  
 SETTING SPIN           =     0.00000000D+00                                  


 Recomputing integrals since basis changed


 Using spherical harmonics

 Library entry O      S cc-pVTZ-F12          selected for orbital group  1
 Library entry O      P cc-pVTZ-F12          selected for orbital group  1
 Library entry O      D cc-pVTZ-F12          selected for orbital group  1
 Library entry O      F cc-pVTZ-F12          selected for orbital group  1
 Library entry H      S cc-pVTZ-F12          selected for orbital group  2
 Library entry H      P cc-pVTZ-F12          selected for orbital group  2
 Library entry H      D cc-pVTZ-F12          selected for orbital group  2


 PROGRAM * SEWARD (Integral evaluation for generally contracted gaussian basis sets)     Author: Roland Lindh, 1990

 Geometry written to block  1 of record 700


 Point group  C2v 



 ATOMIC COORDINATES

 NR  ATOM    CHARGE       X              Y              Z

   1  O       8.00    0.000000000    0.000000000   -0.124238451
   2  H       1.00    0.000000000    1.525876551    0.986041166
   3  H       1.00    0.000000000   -1.525876551    0.986041166

 Bond lengths in Bohr (Angstrom)

 1-2  1.887066527  1-3  1.887066527
     ( 0.998592601)     ( 0.998592601)

 Bond angles

  2-1-3  107.91818285

 NUCLEAR CHARGE:                   10
 NUMBER OF PRIMITIVE AOS:         114
 NUMBER OF SYMMETRY AOS:          103
 NUMBER OF CONTRACTIONS:           89   (  35A1  +  18B1  +  26B2  +  10A2  )
 NUMBER OF CORE ORBITALS:           1   (   1A1  +   0B1  +   0B2  +   0A2  )
 NUMBER OF VALENCE ORBITALS:        6   (   3A1  +   1B1  +   2B2  +   0A2  )


 NUCLEAR REPULSION ENERGY    8.80644889

 Eigenvalues of metric

         1 0.245E-03 0.586E-03 0.723E-03 0.167E-02 0.242E-02 0.482E-02 0.858E-02 0.208E-01
         2 0.696E-03 0.123E-01 0.452E-01 0.845E-01 0.136E+00 0.230E+00 0.249E+00 0.371E+00
         3 0.486E-03 0.836E-03 0.213E-02 0.472E-02 0.100E-01 0.183E-01 0.190E-01 0.490E-01
         4 0.103E-01 0.920E-01 0.200E+00 0.317E+00 0.479E+00 0.620E+00 0.907E+00 0.130E+01


 Contracted 2-electron integrals neglected if value below      1.0D-11

        1872801. INTEGRALS WRITTEN OUT IN     458 BLOCKS ON RECORD 1290 OF FILE 1


 NUMBER OF SORTED TWO-ELECTRON INTEGRALS:    2124910.     BUFFER LENGTH:  32768
 NUMBER OF SEGMENTS:   1  SEGMENT LENGTH:    2124910      RECORD LENGTH: 524288

 Memory used in sort:       2.68 MW

 SORT1 READ     1872801. AND WROTE     1933135. INTEGRALS IN      6 RECORDS. CPU TIME:     0.07 SEC, REAL TIME:     0.08 SEC
 SORT2 READ     1933135. AND WROTE     2124910. INTEGRALS IN      1 RECORDS. CPU TIME:     0.06 SEC, REAL TIME:     0.09 SEC

 FILE SIZES:   FILE 1:    50.1 MBYTE,  FILE 4:    25.2 MBYTE,   TOTAL:     75.3 MBYTE

 OPERATOR DM      FOR CENTER  0  COORDINATES:    0.000000    0.000000    0.000000


 **********************************************************************************************************************************
 DATASETS  * FILE   NREC   LENGTH (MB)   RECORD NAMES
              1      19       35.96       500      610      700      900      950      970     1000      129      960     1100   
                                          VAR    BASINP    GEOM    SYMINP    ZMAT    AOBASIS   BASIS     P2S    ABASIS      S 
                                         1400     1410     1200     1210     1080     1600     1650     1300     1700   
                                           T        V       H0       H01     AOSYM     SMH    MOLCAS    ERIS     OPER   

 PROGRAMS   *        TOTAL       INT
 CPU TIMES  *         0.45      0.37
 REAL TIME  *         0.72 SEC
 DISK USED  *        75.63 MB      
 **********************************************************************************************************************************


 PROGRAM * RHF-SCF (CLOSED SHELL)       Authors: W. Meyer, H.-J. Werner


 NUMBER OF ELECTRONS:       5+    5-
 CONVERGENCE THRESHOLDS:    1.00E-05 (Density)    1.00E-07 (Energy)
 MAX. NUMBER OF ITERATIONS:       60
 INTERPOLATION TYPE:            DIIS
 INTERPOLATION STEPS:              2 (START)      1 (STEP)
 LEVEL SHIFTS:                  0.00 (CLOSED)  0.00 (OPEN) 



 Orbital guess generated from atomic densities. Full valence occupancy:    4   1   2   0

 Molecular orbital dump at record        2100.2

 Initial occupancy:   3   1   1   0

 ITERATION    DDIFF          GRAD             ENERGY        2-EL.EN.            DIPOLE MOMENTS         DIIS   ORB.
    1      0.000D+00      0.000D+00       -76.02018616     77.156527    0.00000    0.00000    1.14818    0    start
    2      0.000D+00      0.184D-01       -76.04670991     73.428996    0.00000    0.00000    0.66408    1    diag
    3      0.201D-01      0.120D-01       -76.05878056     75.093726    0.00000    0.00000    0.78381    2    diag
    4      0.719D-02      0.111D-02       -76.05898797     75.000534    0.00000    0.00000    0.77786    3    diag
    5      0.103D-02      0.323D-03       -76.05901177     75.015255    0.00000    0.00000    0.77545    4    diag
    6      0.383D-03      0.665D-04       -76.05901345     75.013997    0.00000    0.00000    0.77475    5    diag
    7      0.114D-03      0.137D-04       -76.05901354     75.014165    0.00000    0.00000    0.77453    6    diag
    8      0.264D-04      0.263D-05       -76.05901354     75.014148    0.00000    0.00000    0.77447    7    diag
    9      0.484D-05      0.383D-06       -76.05901354     75.014134    0.00000    0.00000    0.77446    0    orth

 Final occupancy:   3   1   1   0

 !RHF STATE 1.1 Energy                -76.059013540281
 Nuclear energy                         8.80644889
 One-electron energy                 -122.37252960
 Two-electron energy                   37.50706717
 Virial quotient                       -1.00291925
 !RHF STATE 1.1 Dipole moment           0.00000000     0.00000000     0.77446236
 Dipole moment /Debye                   0.00000000     0.00000000     1.96835803

 Orbital energies:

         1.1          2.1          3.1          4.1          5.1
    -20.570262    -1.330399    -0.570587     0.104039     0.141464

         1.2          2.2          3.2
     -0.506211     0.145868     0.511906

         1.3          2.3          3.3
     -0.701738     0.120630     0.222194

         1.4          2.4
      0.475585     1.305942

 HOMO      1.2    -0.506211 =     -13.7747eV
 LUMO      4.1     0.104039 =       2.8311eV
 LUMO-HOMO         0.610251 =      16.6058eV


 **********************************************************************************************************************************
 DATASETS  * FILE   NREC   LENGTH (MB)   RECORD NAMES
              1      19       35.96       500      610      700      900      950      970     1000      129      960     1100   
                                          VAR    BASINP    GEOM    SYMINP    ZMAT    AOBASIS   BASIS     P2S    ABASIS      S 
                                         1400     1410     1200     1210     1080     1600     1650     1300     1700   
                                           T        V       H0       H01     AOSYM     SMH    MOLCAS    ERIS     OPER   

              2       4        2.84       700     1000      520     2100   
                                         GEOM     BASIS   MCVARS     RHF  

 PROGRAMS   *        TOTAL        HF       INT
 CPU TIMES  *         0.55      0.10      0.37
 REAL TIME  *         0.93 SEC
 DISK USED  *        75.63 MB      
 **********************************************************************************************************************************


 PROGRAM * CCSD (Closed-shell coupled cluster)     Authors: C. Hampel, H.-J. Werner, 1991, M. Deegan, P.J. Knowles, 1992

                                  CCSD-F12 implementation by  H.-J. Werner, 2007

                   Density fitting integral evaluation by F.R. Manby, 2003,2007, G. Knizia, 2010

 Basis set AUG-CC-PVTZ/JKFIT generated.  Number of basis functions:   196 
 Basis set CC-PVTZ-F12/OPTRI generated.  Number of basis functions:   157 
 Basis set AUG-CC-PVTZ/MP2FIT generated. Number of basis functions:   198 

 Convergence thresholds:  THRVAR = 1.00D-08  THRDEN = 1.00D-06

 CCSD(T)     terms to be evaluated (factor= 1.000)


 Number of core orbitals:           1 (   1   0   0   0 )
 Number of closed-shell orbitals:   4 (   2   1   1   0 )
 Number of external orbitals:      84 (  32  17  25  10 )

 Molecular orbitals read from record     2100.2  Type=RHF/CANONICAL (state 1.1)

 MP2-F12 correlation treatment (H.-J. Werner, 2006)
 ==================================================

 Using MP2-F12 with ansatz 3C(FIX)

 Using projected zeroth-order Hamiltonian (+Z)

 FOCKRIB=T FOCKRIC=T FOCKRIP=T CABSP=T CABSA=T CABSK=T CABSF=T GBC=F EBC=F DMAT=T NOFIK=T NOPAO=1 SOLVE=-1  USEPAO=0
 EXCH_A= T EXCH_B= F EXCH_C= F EXCH_P= F
 
 Geminal basis:    OPTFULL  GEM_TYPE=SLATER  BETA=1.0  NGEM=6

 Optimizing Gaussian exponents for each gem_beta

 Geminal optimization for beta= 1.0000
 Weight function:   m=0, omega= 1.4646

 Augmented Hessian optimization of geminal fit. Trust ratio= 0.40000
 Convergence reached after   2 iterations. Final gradient= 8.41D-16, Step= 4.29D-06, Delta= 1.28D-09
 
 Alpha:                 0.19532     0.81920     2.85917     9.50073    35.69989   197.79328
 Coeff:                 0.27070     0.30552     0.18297     0.10986     0.06810     0.04224
 

 Symmetry turned off. Reference energy:        -76.059013540281

 All pairs explicitly correlated. Number of r12-pairs:           10

 Excluding core orbitals from MO domains
 
 AO(A)-basis ORBITAL           loaded. Number of functions:      89
 RI(R)-basis CC-PVTZ-F12/OPTRI loaded. Number of functions:     157
 DF-basis AUG-CC-PVTZ/JKFIT    loaded. Number of functions:     196

 Screening thresholds:   THRAO=  1.00D-10  THRMO=  1.00D-09  THRPROD=  1.00D-09
                         THRSW=  1.00D-05  THROV=  1.00D-12  THRAOF12=   1.00D-08

 CPU time for Fock operators                      0.94 sec
 
 Construction of ABS:
 Smallest eigenvalue of S          9.49E-04  (threshold= 1.00E-08)
 Ratio eigmin/eigmax               1.62E-04  (threshold= 1.00E-09)
 Smallest eigenvalue of S kept     9.49E-04  (threshold= 9.49E-04, 0 functions deleted, 157 kept)
 
 Construction of CABS:
 Smallest eigenvalue of S          2.35E-06  (threshold= 1.00E-08)
 Ratio eigmin/eigmax               2.35E-06  (threshold= 1.00E-09)
 Smallest eigenvalue of S kept     2.35E-06  (threshold= 2.35E-06, 0 functions deleted, 157 kept)
 
 CPU time for CABS singles                        0.02 sec

 CABS-singles contribution of  -0.00093379 patched into reference energy.
 New reference energy         -76.05994733
 
 AO(A)-basis ORBITAL           loaded. Number of functions:      89
 RI(R)-basis CC-PVTZ-F12/OPTRI loaded. Number of functions:     157
 DF-basis AUG-CC-PVTZ/MP2FIT   loaded. Number of functions:     198

 Screening thresholds:   THRAO=  1.00D-10  THRMO=  1.00D-09  THRPROD=  1.00D-09
                         THRSW=  1.00D-05  THROV=  1.00D-12  THRAOF12=   1.00D-08

 CPU time for 3-index integral evaluation         0.51 sec
 CPU time for first  half transformation          0.02 sec ( 8818.0 MFLOP/sec)
 CPU time for assembly                            0.02 sec (26756.3 MFLOP/sec)
 CPU time for tranop_f12                          0.01 sec (65192.9 MFLOP/sec)
 CPU time for f12 integrals (total)               1.33 sec, Elapsed time:      1.38 sec
 CPU time for f12 matrices (total)                0.01 sec, Elapsed time:      0.01 sec

 Diagonal F12 approximation with fixed coefficients:  TSING= 0.500,  TTRIP= 0.250 (scaled by -1/beta)

 DF-MP2-F12 energy corrections:
 ==============================
 Approx.                                    Singlet             Triplet             Total
 DF-MP2-F12/3*C(DX,FIX)                -0.025060166957     -0.002982683247     -0.028042850203
 DF-MP2-F12/3*C(FIX)                   -0.023324389281     -0.002703302169     -0.026027691451
 DF-MP2-F12/3C(FIX)                    -0.023251828669     -0.002799155628     -0.026050984297

 DF-MP2-F12 correlation energies:
 ================================
 Approx.                                    Singlet             Triplet             Ecorr            Total Energy
 DF-MP2                                -0.175857971944     -0.100219638309     -0.276077610253    -76.336024936736
 DF-MP2-F12/3*C(DX,FIX)                -0.200918138901     -0.103202321556     -0.304120460456    -76.364067786939
 DF-MP2-F12/3*C(FIX)                   -0.199182361225     -0.102922940478     -0.302105301704    -76.362052628187
 DF-MP2-F12/3C(FIX)                    -0.199109800613     -0.103018793937     -0.302128594550    -76.362075921033

 SCS-DF-MP2 energies (F_SING= 1.20000  F_TRIP= 0.62222  F_PARALLEL= 0.33333):
 ============================================================================
 SCS-DF-MP2                            -0.273388452392    -76.333335778875
 SCS-DF-MP2-F12/3*C(DX,FIX)            -0.305316544538    -76.365263871021
 SCS-DF-MP2-F12/3*C(FIX)               -0.303059774213    -76.363007100696
 SCS-DF-MP2-F12/3C(FIX)                -0.303032343630    -76.362979670113

 Symmetry restored.
 Symmetry transformation completed.

 Number of N-1 electron functions:               4
 Number of N-2 electron functions:              10
 Number of singly external CSFs:               106
 Number of doubly external CSFs:             14828
 Total number of CSFs:                       14935

 Length of J-op  integral file:               8.86 MB
 Length of K-op  integral file:              13.00 MB
 Length of 3-ext integral record:             0.00 MB

 Memory could be reduced to 1.33 Mwords without degradation in triples

 Integral transformation finished. Total CPU:   0.02 sec, npass=  1  Memory used:   0.24 MW

 Reference energy:                    -76.05994733

 Adding F12 terms to K(Cij), methodcc=6,  factor= 1.0

 ITER.      SQ.NORM     CORR.ENERGY   TOTAL ENERGY   ENERGY CHANGE        DEN1      VAR(S)    VAR(P)  DIIS     TIME  TIME/IT
   1      1.06388097    -0.27602755   -76.33597488     0.00009406     0.00631227  0.81D-03  0.11D-02  1  1     2.51     0.03
   2      1.06747466    -0.27578596   -76.33573329     0.00024159    -0.00485179  0.15D-04  0.12D-03  2  2     2.54     0.03
   3      1.06879870    -0.27593312   -76.33588045    -0.00014716    -0.00087209  0.99D-05  0.81D-05  3  3     2.55     0.03
   4      1.06941314    -0.27595735   -76.33590467    -0.00002423    -0.00039120  0.49D-06  0.64D-06  4  4     2.58     0.03
   5      1.06951853    -0.27595587   -76.33590320     0.00000148    -0.00002326  0.15D-06  0.41D-07  5  5     2.61     0.03
   6      1.06954724    -0.27595449   -76.33590182     0.00000138    -0.00000492  0.13D-07  0.42D-08  6  6     2.63     0.03
   7      1.06955453    -0.27595410   -76.33590143     0.00000039    -0.00000164  0.12D-08  0.32D-09  6  1     2.65     0.03
   8      1.06955620    -0.27595417   -76.33590150    -0.00000007    -0.00000001  0.11D-09  0.40D-10  6  2     2.68     0.03

 Norm of t1 vector:      0.03739423      S-energy:    -0.00000013      T1 diagnostic:  0.00934856
                                                                       D1 diagnostic:  0.01876769

 Adding energy correction from Wij-K(Fij), methodcc=6  factor= 1.0
 
  CCSD correlation energy              -0.275954174593
  MP2-F12 correction (uncoupled)       -0.024920314779
  C*T doubles correction               -0.000840483310
  f12b correction                       0.004296273360


 Total CPU time for triples:      0.10 sec


 RESULTS
 =======

  Reference energy                    -76.059013540281
  F12 singles correction               -0.000933786202

 F12 singles corrections added to reference energy

  New reference energy                -76.059947326483

  F12a singlet correction              -0.023067899442
  F12a triplet correction              -0.002692898647
  F12a total correction                -0.025760798089

 F12a corrections for ansatz F12/3C(FIX) added to CCSD energy
 
  CCSD-F12a singlet pair energy        -0.210792058563
  CCSD-F12a triplet pair energy        -0.090922784807
  CCSD-F12a correlation energy         -0.301714972682

  Triples (T) contribution             -0.009109748359
  Total correlation energy             -0.310824721041

  CCSD-F12a total energy              -76.361662299165
  CCSD[T]-F12a energy                 -76.371095442330
  CCSD-T-F12a energy                  -76.370629690558
 !CCSD(T)-F12a total energy           -76.370772047524

 F12b corrections for ansatz F12/3C(FIX) added to CCSD(T)-F12a energy

  CCSD-F12b singlet pair energy        -0.206805683150
  CCSD-F12b triplet pair energy        -0.090612886861
  CCSD-F12b correlation energy         -0.297418699322

  Triples (T) contribution             -0.009109748359
  Total correlation energy             -0.306528447681

  CCSD-F12b total energy              -76.357366025806
  CCSD[T]-F12b energy                 -76.366799168970
  CCSD-T-F12b energy                  -76.366333417199
 !CCSD(T)-F12b total energy           -76.366475774164

 Timing summary (sec):

 STEP                 CPU(USER)    SYS     CPU(TOT)    WALL
 Transformation          0.04      0.01      0.05      0.04
 CCSD iterations         0.23      0.05      0.28      0.30
 Triples                 0.10      0.00      0.10      0.09
 MP2-F12                 2.41      0.07      2.48      2.49
 F12b energy             0.02      0.00      0.02      0.03

 Program statistics:

 Available memory in ccsd:                49999786
 Min. memory needed in ccsd:                 74516
 Max. memory used in ccsd:                   84748
 Max. memory used in cckext:                120394 ( 9 integral passes)



 **********************************************************************************************************************************
 DATASETS  * FILE   NREC   LENGTH (MB)   RECORD NAMES
              1      20       38.72       500      610      700      900      950      970     1000      129      960     1100   
                                          VAR    BASINP    GEOM    SYMINP    ZMAT    AOBASIS   BASIS     P2S    ABASIS      S 
                                         1400     1410     1200     1210     1080     1600     1650     1300     1700     1380   
                                           T        V       H0       H01     AOSYM     SMH    MOLCAS    ERIS     OPER     JKOP   

              2       6        2.89       700     1000      520     2100     7360     7350   
                                         GEOM     BASIS   MCVARS     RHF    F12ABS    EF12   

 PROGRAMS   *        TOTAL   CCSD(T)        HF       INT
 CPU TIMES  *         3.38      2.83      0.10      0.37
 REAL TIME  *         3.90 SEC
 DISK USED  *        78.37 MB      
 **********************************************************************************************************************************

 CCSD(T)-F12/cc-pVTZ-F12 energy=    -76.366475774164

     CCSD(T)-F12        HF-SCF  
    -76.36647577    -76.05901354
 **********************************************************************************************************************************
 Molpro calculation terminated
 Variable memory released
