
 Primary working directories    : /tmp/r2518/22909.maple
 Secondary working directories  : /tmp/r2518/22909.maple
 Wavefunction directory         : /ddn/home1/r2518/wfu/
 Main file repository           : /tmp/r2518/22909.maple/

 SHA1      : d5ffa45e93fdbca01ffc919aa182cfdae0147319
 NAME      : 2015.1.35
 ARCHNAME  : linux/x86_64
 FC        : /opt/intel/composer_xe_2015.1.133/bin/intel64/ifort
 BLASLIB   : -Wl,-_start-group /opt/intel/mkl/lib/intel64/libmkl_intel_ilp64.a /opt/intel/mkl/lib/intel64/libmkl_intel_thread.a /opt/intel/mkl/lib/intel64/libmkl_core.a -Wl,-_end-group
 id        : olemiss

 Nodes     nprocs
 cn096        1

 Using customized tuning parameters: mindgm=1; mindgv=20; mindgc=4; mindgr=1; noblas=0; minvec=7
 default implementation of scratch files=df  

 memory,50,m
 nocompress;
 geomtyp=xyz
 angstrom
 geometry={
 O,0.0,-0.05,-0.0657441568
 H,0.05,0.7574590974,0.5217905143
 H,0.0,-0.7574590974,0.5217905143
 }
 basis=cc-pVTZ-F12
 set,charge=0
 set,spin=0
 hf
 {CCSD(T)-F12}

 Variables initialized (889), CPU time= 0.01 sec
 Commands  initialized (702), CPU time= 0.01 sec, 572 directives.
 Default parameters read. Elapsed time= 0.06 sec

 Checking input...
 Passed
1


                                         ***  PROGRAM SYSTEM MOLPRO  ***
                                       Copyright, TTI GmbH Stuttgart, 2015
                                    Version 2015.1 linked Jul  9 2018 13:16:40


 **********************************************************************************************************************************
 LABEL *                                                                                 
  64 bit serial version                                                                  DATE: 28-Aug-19          TIME: 15:37:35  
 **********************************************************************************************************************************

 SHA1:             d5ffa45e93fdbca01ffc919aa182cfdae0147319
 **********************************************************************************************************************************

 Input parameters for SORTINT:

 COMPRESS =    0.000000
 C_FINAL  =    1.000000
 DEBUG    =   -1.000000
 C_SORT1  =    0.000000
 C_SEWARD =    0.000000
 THRESH   =    0.000000
 IO       =  molpro                                                          
 SPRI     =    0.000000
 SETTING GEOMTYP        =    XYZ
 ZUNIT=ANG
 

 Variable memory set to   50000000 words,  buffer space   230000 words

 SETTING BASIS          =    CC-PVTZ-F12
 SETTING CHARGE         =     0.00000000D+00                                  
 SETTING SPIN           =     0.00000000D+00                                  


 Recomputing integrals since basis changed


 Using spherical harmonics

 Library entry O      S cc-pVTZ-F12          selected for orbital group  1
 Library entry O      P cc-pVTZ-F12          selected for orbital group  1
 Library entry O      D cc-pVTZ-F12          selected for orbital group  1
 Library entry O      F cc-pVTZ-F12          selected for orbital group  1
 Library entry H      S cc-pVTZ-F12          selected for orbital group  2
 Library entry H      P cc-pVTZ-F12          selected for orbital group  2
 Library entry H      D cc-pVTZ-F12          selected for orbital group  2


 PROGRAM * SEWARD (Integral evaluation for generally contracted gaussian basis sets)     Author: Roland Lindh, 1990

 Geometry written to block  1 of record 700


 Point group  C1  



 ATOMIC COORDINATES

 NR  ATOM    CHARGE       X              Y              Z

   1  O       8.00    0.000000000   -0.094486306   -0.124238451
   2  H       1.00    0.094486306    1.431390245    0.986041166
   3  H       1.00    0.000000000   -1.431390245    0.986041166

 Bond lengths in Bohr (Angstrom)

 1-2  1.889430533  1-3  1.737824205
     ( 0.999843580)     ( 0.919616966)

 Bond angles

  2-1-3  104.23173916

 NUCLEAR CHARGE:                   10
 NUMBER OF PRIMITIVE AOS:         114
 NUMBER OF SYMMETRY AOS:          103
 NUMBER OF CONTRACTIONS:           89   (  89A   )
 NUMBER OF CORE ORBITALS:           1   (   1A   )
 NUMBER OF VALENCE ORBITALS:        6   (   6A   )


 NUCLEAR REPULSION ENERGY    9.18665820


 Eigenvalues of metric

         1 0.210E-03 0.459E-03 0.574E-03 0.691E-03 0.710E-03 0.797E-03 0.158E-02 0.200E-02


 Contracted 2-electron integrals neglected if value below      1.0D-11

        5898146. INTEGRALS WRITTEN OUT IN    1441 BLOCKS ON RECORD 1290 OF FILE 1


 NUMBER OF SORTED TWO-ELECTRON INTEGRALS:    8022015.     BUFFER LENGTH:  32768
 NUMBER OF SEGMENTS:   1  SEGMENT LENGTH:    8022015      RECORD LENGTH: 524288

 Memory used in sort:       8.58 MW

 SORT1 READ     5898146. AND WROTE     5898146. INTEGRALS IN     17 RECORDS. CPU TIME:     0.10 SEC, REAL TIME:     0.12 SEC
 SORT2 READ     5898146. AND WROTE     8022015. INTEGRALS IN      1 RECORDS. CPU TIME:     0.11 SEC, REAL TIME:     0.15 SEC

 FILE SIZES:   FILE 1:   114.6 MBYTE,  FILE 4:    71.3 MBYTE,   TOTAL:    186.0 MBYTE

 OPERATOR DM      FOR CENTER  0  COORDINATES:    0.000000    0.000000    0.000000


 **********************************************************************************************************************************
 DATASETS  * FILE   NREC   LENGTH (MB)   RECORD NAMES
              1      19       70.15       500      610      700      900      950      970     1000      129      960     1100   
                                          VAR    BASINP    GEOM    SYMINP    ZMAT    AOBASIS   BASIS     P2S    ABASIS      S 
                                         1400     1410     1200     1210     1080     1600     1650     1300     1700   
                                           T        V       H0       H01     AOSYM     SMH    MOLCAS    ERIS     OPER   

 PROGRAMS   *        TOTAL       INT
 CPU TIMES  *         0.60      0.51
 REAL TIME  *         0.93 SEC
 DISK USED  *       186.30 MB      
 **********************************************************************************************************************************


 PROGRAM * RHF-SCF (CLOSED SHELL)       Authors: W. Meyer, H.-J. Werner


 NUMBER OF ELECTRONS:       5+    5-    SPACE SYMMETRY=1    SPIN SYMMETRY: Singlet 
 CONVERGENCE THRESHOLDS:    1.00E-05 (Density)    1.00E-07 (Energy)
 MAX. NUMBER OF ITERATIONS:       60
 INTERPOLATION TYPE:            DIIS
 INTERPOLATION STEPS:              2 (START)      1 (STEP)
 LEVEL SHIFTS:                  0.00 (CLOSED)  0.00 (OPEN) 



 Orbital guess generated from atomic densities. Full valence occupancy:    7

 Molecular orbital dump at record        2100.2

 Initial occupancy:   5

 ITERATION    DDIFF          GRAD             ENERGY        2-EL.EN.            DIPOLE MOMENTS         DIIS   ORB.
    1      0.000D+00      0.000D+00       -76.02315930     77.684807    0.04927    0.12256    1.13784    0    start
    2      0.000D+00      0.107D-01       -76.05041779     74.060912    0.02842    0.04713    0.67593    1    diag
    3      0.112D-01      0.667D-02       -76.06165432     75.653469    0.03342    0.06063    0.79047    2    diag
    4      0.386D-02      0.630D-03       -76.06184827     75.563127    0.03310    0.05558    0.78671    3    diag
    5      0.564D-03      0.175D-03       -76.06186872     75.577188    0.03298    0.05353    0.78527    4    diag
    6      0.200D-03      0.348D-04       -76.06187004     75.576183    0.03294    0.05288    0.78493    5    diag
    7      0.570D-04      0.714D-05       -76.06187011     75.576320    0.03293    0.05271    0.78480    6    diag
    8      0.124D-04      0.136D-05       -76.06187011     75.576309    0.03293    0.05269    0.78476    7    diag
    9      0.232D-05      0.181D-06       -76.06187011     75.576295    0.03293    0.05268    0.78475    0    orth

 Final occupancy:   5

 !RHF STATE 1.1 Energy                -76.061870107992
 Nuclear energy                         9.18665820
 One-electron energy                 -123.03667599
 Two-electron energy                   37.78814767
 Virial quotient                       -1.00085849
 !RHF STATE 1.1 Dipole moment           0.03292649     0.05268414     0.78475471
 Dipole moment /Debye                   0.08368531     0.13390095     1.99451687

 Orbital energies:

         1.1          2.1          3.1          4.1          5.1          6.1          7.1
    -20.565107    -1.353460    -0.716549    -0.584540    -0.510534     0.101331     0.120839

 HOMO      5.1    -0.510534 =     -13.8923eV
 LUMO      6.1     0.101331 =       2.7573eV
 LUMO-HOMO         0.611865 =      16.6497eV


 **********************************************************************************************************************************
 DATASETS  * FILE   NREC   LENGTH (MB)   RECORD NAMES
              1      19       70.15       500      610      700      900      950      970     1000      129      960     1100   
                                          VAR    BASINP    GEOM    SYMINP    ZMAT    AOBASIS   BASIS     P2S    ABASIS      S 
                                         1400     1410     1200     1210     1080     1600     1650     1300     1700   
                                           T        V       H0       H01     AOSYM     SMH    MOLCAS    ERIS     OPER   

              2       4        2.95       700     1000      520     2100   
                                         GEOM     BASIS   MCVARS     RHF  

 PROGRAMS   *        TOTAL        HF       INT
 CPU TIMES  *         1.09      0.49      0.51
 REAL TIME  *         1.53 SEC
 DISK USED  *       186.30 MB      
 **********************************************************************************************************************************


 PROGRAM * CCSD (Closed-shell coupled cluster)     Authors: C. Hampel, H.-J. Werner, 1991, M. Deegan, P.J. Knowles, 1992

                                  CCSD-F12 implementation by  H.-J. Werner, 2007

                   Density fitting integral evaluation by F.R. Manby, 2003,2007, G. Knizia, 2010

 Basis set AUG-CC-PVTZ/JKFIT generated.  Number of basis functions:   196 
 Basis set CC-PVTZ-F12/OPTRI generated.  Number of basis functions:   157 
 Basis set AUG-CC-PVTZ/MP2FIT generated. Number of basis functions:   198 

 Convergence thresholds:  THRVAR = 1.00D-08  THRDEN = 1.00D-06

 CCSD(T)     terms to be evaluated (factor= 1.000)


 Number of core orbitals:           1 (   1 )
 Number of closed-shell orbitals:   4 (   4 )
 Number of external orbitals:      84 (  84 )

 Molecular orbitals read from record     2100.2  Type=RHF/CANONICAL (state 1.1)

 MP2-F12 correlation treatment (H.-J. Werner, 2006)
 ==================================================

 Using MP2-F12 with ansatz 3C(FIX)

 Using projected zeroth-order Hamiltonian (+Z)

 FOCKRIB=T FOCKRIC=T FOCKRIP=T CABSP=T CABSA=T CABSK=T CABSF=T GBC=F EBC=F DMAT=T NOFIK=T NOPAO=1 SOLVE=-1  USEPAO=0
 EXCH_A= T EXCH_B= F EXCH_C= F EXCH_P= F
 
 Geminal basis:    OPTFULL  GEM_TYPE=SLATER  BETA=1.0  NGEM=6

 Optimizing Gaussian exponents for each gem_beta

 Geminal optimization for beta= 1.0000
 Weight function:   m=0, omega= 1.4646

 Augmented Hessian optimization of geminal fit. Trust ratio= 0.40000
 Convergence reached after   2 iterations. Final gradient= 8.41D-16, Step= 4.29D-06, Delta= 1.28D-09
 
 Alpha:                 0.19532     0.81920     2.85917     9.50073    35.69989   197.79328
 Coeff:                 0.27070     0.30552     0.18297     0.10986     0.06810     0.04224
 

 All pairs explicitly correlated. Number of r12-pairs:           10

 Excluding core orbitals from MO domains
 
 AO(A)-basis ORBITAL           loaded. Number of functions:      89
 RI(R)-basis CC-PVTZ-F12/OPTRI loaded. Number of functions:     157
 DF-basis AUG-CC-PVTZ/JKFIT    loaded. Number of functions:     196

 Screening thresholds:   THRAO=  1.00D-10  THRMO=  1.00D-09  THRPROD=  1.00D-09
                         THRSW=  1.00D-05  THROV=  1.00D-12  THRAOF12=   1.00D-08

 CPU time for Fock operators                      0.33 sec
 
 Construction of ABS:
 Smallest eigenvalue of S          7.16E-04  (threshold= 1.00E-08)
 Ratio eigmin/eigmax               1.20E-04  (threshold= 1.00E-09)
 Smallest eigenvalue of S kept     7.16E-04  (threshold= 7.16E-04, 0 functions deleted, 157 kept)
 
 Construction of CABS:
 Smallest eigenvalue of S          1.78E-06  (threshold= 1.00E-08)
 Ratio eigmin/eigmax               1.78E-06  (threshold= 1.00E-09)
 Smallest eigenvalue of S kept     1.78E-06  (threshold= 1.78E-06, 0 functions deleted, 157 kept)
 
 CPU time for CABS singles                        0.01 sec

 CABS-singles contribution of  -0.00101153 patched into reference energy.
 New reference energy         -76.06288164
 
 AO(A)-basis ORBITAL           loaded. Number of functions:      89
 RI(R)-basis CC-PVTZ-F12/OPTRI loaded. Number of functions:     157
 DF-basis AUG-CC-PVTZ/MP2FIT   loaded. Number of functions:     198

 Screening thresholds:   THRAO=  1.00D-10  THRMO=  1.00D-09  THRPROD=  1.00D-09
                         THRSW=  1.00D-05  THROV=  1.00D-12  THRAOF12=   1.00D-08

 CPU time for 3-index integral evaluation         0.41 sec
 CPU time for first  half transformation          0.02 sec ( 8818.0 MFLOP/sec)
 CPU time for tilde quantities                    0.01 sec (10820.3 MFLOP/sec)
 CPU time for assembly                            0.01 sec (53512.5 MFLOP/sec)
 CPU time for tranop_f12                          0.03 sec (21731.0 MFLOP/sec)
 CPU time for f12 integrals (total)               0.56 sec, Elapsed time:      0.59 sec
 CPU time for f12 matrices (total)                0.00 sec, Elapsed time:      0.00 sec

 Diagonal F12 approximation with fixed coefficients:  TSING= 0.500,  TTRIP= 0.250 (scaled by -1/beta)

 DF-MP2-F12 energy corrections:
 ==============================
 Approx.                                    Singlet             Triplet             Total
 DF-MP2-F12/3*C(DX,FIX)                -0.025270525386     -0.003023349905     -0.028293875291
 DF-MP2-F12/3*C(FIX)                   -0.023470412537     -0.002732449169     -0.026202861706
 DF-MP2-F12/3C(FIX)                    -0.023392868747     -0.002828482897     -0.026221351644

 DF-MP2-F12 correlation energies:
 ================================
 Approx.                                    Singlet             Triplet             Ecorr            Total Energy
 DF-MP2                                -0.173934804720     -0.099226303151     -0.273161107870    -76.336042748759
 DF-MP2-F12/3*C(DX,FIX)                -0.199205330105     -0.102249653056     -0.301454983161    -76.364336624050
 DF-MP2-F12/3*C(FIX)                   -0.197405217257     -0.101958752320     -0.299363969577    -76.362245610466
 DF-MP2-F12/3C(FIX)                    -0.197327673467     -0.102054786048     -0.299382459515    -76.362264100404

 SCS-DF-MP2 energies (F_SING= 1.20000  F_TRIP= 0.62222  F_PARALLEL= 0.33333):
 ============================================================================
 SCS-DF-MP2                            -0.270462576513    -76.333344217402
 SCS-DF-MP2-F12/3*C(DX,FIX)            -0.302668402472    -76.365550043361
 SCS-DF-MP2-F12/3*C(FIX)               -0.300327262152    -76.363208903041
 SCS-DF-MP2-F12/3C(FIX)                -0.300293963923    -76.363175604812
 Symmetry transformation completed.

 Number of N-1 electron functions:               4
 Number of N-2 electron functions:              10
 Number of singly external CSFs:               336
 Number of doubly external CSFs:             56616
 Total number of CSFs:                       56953

 Length of J-op  integral file:               9.11 MB
 Length of K-op  integral file:              14.70 MB
 Length of 3-ext integral record:             0.00 MB

 Memory could be reduced to 4.35 Mwords without degradation in triples

 Integral transformation finished. Total CPU:   0.14 sec, npass=  1  Memory used:   2.09 MW

 Reference energy:                    -76.06288164

 Adding F12 terms to K(Cij), methodcc=6,  factor= 1.0

 ITER.      SQ.NORM     CORR.ENERGY   TOTAL ENERGY   ENERGY CHANGE        DEN1      VAR(S)    VAR(P)  DIIS     TIME  TIME/IT
   1      1.06157122    -0.27351731   -76.33639895    -0.00031355     0.00548055  0.72D-03  0.96D-03  1  1     1.17     0.11
   2      1.06480524    -0.27325594   -76.33613758     0.00026137    -0.00452593  0.13D-04  0.10D-03  2  2     1.27     0.11
   3      1.06594158    -0.27338184   -76.33626348    -0.00012590    -0.00078340  0.85D-05  0.66D-05  3  3     1.37     0.11
   4      1.06645865    -0.27340293   -76.33628457    -0.00002109    -0.00034291  0.41D-06  0.52D-06  4  4     1.47     0.11
   5      1.06654635    -0.27340133   -76.33628297     0.00000160    -0.00001911  0.12D-06  0.31D-07  5  5     1.58     0.11
   6      1.06656978    -0.27340007   -76.33628171     0.00000126    -0.00000387  0.10D-07  0.31D-08  6  6     1.68     0.11
   7      1.06657580    -0.27339970   -76.33628134     0.00000037    -0.00000138  0.87D-09  0.24D-09  6  1     1.77     0.11
   8      1.06657719    -0.27339976   -76.33628140    -0.00000006    -0.00000001  0.67D-10  0.26D-10  6  2     1.86     0.11

 Norm of t1 vector:      0.03516746      S-energy:    -0.00000011      T1 diagnostic:  0.00879186
                                                                       D1 diagnostic:  0.01752734

 Adding energy correction from Wij-K(Fij), methodcc=6  factor= 1.0
 
  CCSD correlation energy              -0.273399760729
  MP2-F12 correction (uncoupled)       -0.025100657265
  C*T doubles correction               -0.000841808968
  f12b correction                       0.004273474602


 Total CPU time for triples:      0.78 sec


 RESULTS
 =======

  Reference energy                    -76.061870107992
  F12 singles correction               -0.001011532897

 F12 singles corrections added to reference energy

  New reference energy                -76.062881640889

  F12a singlet correction              -0.023220054924
  F12a triplet correction              -0.002722411309
  F12a total correction                -0.025942466233

 F12a corrections for ansatz F12/3C(FIX) added to CCSD energy
 
  CCSD-F12a singlet pair energy        -0.208623359446
  CCSD-F12a triplet pair energy        -0.090718757527
  CCSD-F12a correlation energy         -0.299342226962

  Triples (T) contribution             -0.008733254770
  Total correlation energy             -0.308075481732

  CCSD-F12a total energy              -76.362223867851
  CCSD[T]-F12a energy                 -76.371250293968
  CCSD-T-F12a energy                  -76.370829166477
 !CCSD(T)-F12a total energy           -76.370957122621

 F12b corrections for ansatz F12/3C(FIX) added to CCSD(T)-F12a energy

  CCSD-F12b singlet pair energy        -0.204661369031
  CCSD-F12b triplet pair energy        -0.090407273339
  CCSD-F12b correlation energy         -0.295068752360

  Triples (T) contribution             -0.008733254770
  Total correlation energy             -0.303802007130

  CCSD-F12b total energy              -76.357950393249
  CCSD[T]-F12b energy                 -76.366976819366
  CCSD-T-F12b energy                  -76.366555691875
 !CCSD(T)-F12b total energy           -76.366683648019

 Timing summary (sec):

 STEP                 CPU(USER)    SYS     CPU(TOT)    WALL
 Transformation          0.14      0.02      0.16      0.15
 CCSD iterations         0.81      0.12      0.93      0.96
 Triples                 0.78      0.03      0.81      0.81
 MP2-F12                 0.91      0.06      0.97      0.97
 F12b energy             0.09      0.01      0.10      0.09

 Program statistics:

 Available memory in ccsd:                49999786
 Min. memory needed in ccsd:                269472
 Max. memory used in ccsd:                  308684
 Max. memory used in cckext:                227914 ( 9 integral passes)



 **********************************************************************************************************************************
 DATASETS  * FILE   NREC   LENGTH (MB)   RECORD NAMES
              1      20       80.83       500      610      700      900      950      970     1000      129      960     1100   
                                          VAR    BASINP    GEOM    SYMINP    ZMAT    AOBASIS   BASIS     P2S    ABASIS      S 
                                         1400     1410     1200     1210     1080     1600     1650     1300     1700     1380   
                                           T        V       H0       H01     AOSYM     SMH    MOLCAS    ERIS     OPER     JKOP   

              2       6        3.11       700     1000      520     2100     7360     7350   
                                         GEOM     BASIS   MCVARS     RHF    F12ABS    EF12   

 PROGRAMS   *        TOTAL   CCSD(T)        HF       INT
 CPU TIMES  *         3.83      2.74      0.49      0.51
 REAL TIME  *         4.54 SEC
 DISK USED  *       186.30 MB      
 **********************************************************************************************************************************

 CCSD(T)-F12/cc-pVTZ-F12 energy=    -76.366683648019

     CCSD(T)-F12        HF-SCF  
    -76.36668365    -76.06187011
 **********************************************************************************************************************************
 Molpro calculation terminated
 Variable memory released
