
 Primary working directories    : /tmp/r2518/22899.maple
 Secondary working directories  : /tmp/r2518/22899.maple
 Wavefunction directory         : /ddn/home1/r2518/wfu/
 Main file repository           : /tmp/r2518/22899.maple/

 SHA1      : d5ffa45e93fdbca01ffc919aa182cfdae0147319
 NAME      : 2015.1.35
 ARCHNAME  : linux/x86_64
 FC        : /opt/intel/composer_xe_2015.1.133/bin/intel64/ifort
 BLASLIB   : -Wl,-_start-group /opt/intel/mkl/lib/intel64/libmkl_intel_ilp64.a /opt/intel/mkl/lib/intel64/libmkl_intel_thread.a /opt/intel/mkl/lib/intel64/libmkl_core.a -Wl,-_end-group
 id        : olemiss

 Nodes     nprocs
 cn012        1

 Using customized tuning parameters: mindgm=1; mindgv=20; mindgc=4; mindgr=1; noblas=0; minvec=7
 default implementation of scratch files=df  

 memory,50,m
 nocompress;
 geomtyp=xyz
 angstrom
 geometry={
 O,-0.05,0.0,-0.0657441568
 H,0.0,0.7574590974,0.5217905143
 H,0.0,-0.7574590974,0.5717905143
 }
 basis=cc-pVTZ-F12
 set,charge=0
 set,spin=0
 hf
 {CCSD(T)-F12}

 Variables initialized (889), CPU time= 0.00 sec
 Commands  initialized (702), CPU time= 0.01 sec, 572 directives.
 Default parameters read. Elapsed time= 0.06 sec

 Checking input...
 Passed
1


                                         ***  PROGRAM SYSTEM MOLPRO  ***
                                       Copyright, TTI GmbH Stuttgart, 2015
                                    Version 2015.1 linked Jul  9 2018 13:16:40


 **********************************************************************************************************************************
 LABEL *                                                                                 
  64 bit serial version                                                                  DATE: 28-Aug-19          TIME: 15:37:34  
 **********************************************************************************************************************************

 SHA1:             d5ffa45e93fdbca01ffc919aa182cfdae0147319
 **********************************************************************************************************************************

 Input parameters for SORTINT:

 COMPRESS =    0.000000
 C_FINAL  =    1.000000
 DEBUG    =   -1.000000
 C_SORT1  =    0.000000
 C_SEWARD =    0.000000
 THRESH   =    0.000000
 IO       =  molpro                                                          
 SPRI     =    0.000000
 SETTING GEOMTYP        =    XYZ
 ZUNIT=ANG
 

 Variable memory set to   50000000 words,  buffer space   230000 words

 SETTING BASIS          =    CC-PVTZ-F12
 SETTING CHARGE         =     0.00000000D+00                                  
 SETTING SPIN           =     0.00000000D+00                                  


 Recomputing integrals since basis changed


 Using spherical harmonics

 Library entry O      S cc-pVTZ-F12          selected for orbital group  1
 Library entry O      P cc-pVTZ-F12          selected for orbital group  1
 Library entry O      D cc-pVTZ-F12          selected for orbital group  1
 Library entry O      F cc-pVTZ-F12          selected for orbital group  1
 Library entry H      S cc-pVTZ-F12          selected for orbital group  2
 Library entry H      P cc-pVTZ-F12          selected for orbital group  2
 Library entry H      D cc-pVTZ-F12          selected for orbital group  2


 PROGRAM * SEWARD (Integral evaluation for generally contracted gaussian basis sets)     Author: Roland Lindh, 1990

 Geometry written to block  1 of record 700


 Point group  C1  



 ATOMIC COORDINATES

 NR  ATOM    CHARGE       X              Y              Z

   1  O       8.00   -0.094486306    0.000000000   -0.124238451
   2  H       1.00    0.000000000    1.431390245    0.986041166
   3  H       1.00    0.000000000   -1.431390245    1.080527473

 Bond lengths in Bohr (Angstrom)

 1-2  1.813980850  1-3  1.873303666
     ( 0.959917327)     ( 0.991309609)

 Bond angles

  2-1-3  101.92779984

 NUCLEAR CHARGE:                   10
 NUMBER OF PRIMITIVE AOS:         114
 NUMBER OF SYMMETRY AOS:          103
 NUMBER OF CONTRACTIONS:           89   (  89A   )
 NUMBER OF CORE ORBITALS:           1   (   1A   )
 NUMBER OF VALENCE ORBITALS:        6   (   6A   )


 NUCLEAR REPULSION ENERGY    9.02984080

 Eigenvalues of metric

         1 0.227E-03 0.476E-03 0.580E-03 0.693E-03 0.717E-03 0.811E-03 0.161E-02 0.207E-02


 Contracted 2-electron integrals neglected if value below      1.0D-11

        6974468. INTEGRALS WRITTEN OUT IN    1704 BLOCKS ON RECORD 1290 OF FILE 1


 NUMBER OF SORTED TWO-ELECTRON INTEGRALS:    8022015.     BUFFER LENGTH:  32768
 NUMBER OF SEGMENTS:   1  SEGMENT LENGTH:    8022015      RECORD LENGTH: 524288

 Memory used in sort:       8.58 MW

 SORT1 READ     6974468. AND WROTE     6974468. INTEGRALS IN     20 RECORDS. CPU TIME:     0.14 SEC, REAL TIME:     0.20 SEC
 SORT2 READ     6974468. AND WROTE     8022015. INTEGRALS IN      1 RECORDS. CPU TIME:     0.13 SEC, REAL TIME:     0.17 SEC

 FILE SIZES:   FILE 1:   131.9 MBYTE,  FILE 4:    83.9 MBYTE,   TOTAL:    215.8 MBYTE

 OPERATOR DM      FOR CENTER  0  COORDINATES:    0.000000    0.000000    0.000000


 **********************************************************************************************************************************
 DATASETS  * FILE   NREC   LENGTH (MB)   RECORD NAMES
              1      19       79.03       500      610      700      900      950      970     1000      129      960     1100   
                                          VAR    BASINP    GEOM    SYMINP    ZMAT    AOBASIS   BASIS     P2S    ABASIS      S 
                                         1400     1410     1200     1210     1080     1600     1650     1300     1700   
                                           T        V       H0       H01     AOSYM     SMH    MOLCAS    ERIS     OPER   

 PROGRAMS   *        TOTAL       INT
 CPU TIMES  *         0.77      0.67
 REAL TIME  *         1.66 SEC
 DISK USED  *       216.12 MB      
 **********************************************************************************************************************************


 PROGRAM * RHF-SCF (CLOSED SHELL)       Authors: W. Meyer, H.-J. Werner


 NUMBER OF ELECTRONS:       5+    5-    SPACE SYMMETRY=1    SPIN SYMMETRY: Singlet 
 CONVERGENCE THRESHOLDS:    1.00E-05 (Density)    1.00E-07 (Energy)
 MAX. NUMBER OF ITERATIONS:       60
 INTERPOLATION TYPE:            DIIS
 INTERPOLATION STEPS:              2 (START)      1 (STEP)
 LEVEL SHIFTS:                  0.00 (CLOSED)  0.00 (OPEN) 



 Orbital guess generated from atomic densities. Full valence occupancy:    7

 Molecular orbital dump at record        2100.2

 Initial occupancy:   5

 ITERATION    DDIFF          GRAD             ENERGY        2-EL.EN.            DIPOLE MOMENTS         DIIS   ORB.
    1      0.000D+00      0.000D+00       -76.02361580     77.427273    0.09644   -0.00995    1.18176    0    start
    2      0.000D+00      0.106D-01       -76.05080536     73.784627    0.05609    0.00423    0.68705    1    diag
    3      0.112D-01      0.676D-02       -76.06245295     75.406664    0.06622    0.00274    0.81110    2    diag
    4      0.390D-02      0.638D-03       -76.06264842     75.313791    0.06582    0.00467    0.80625    3    diag
    5      0.558D-03      0.180D-03       -76.06267016     75.328936    0.06569    0.00549    0.80453    4    diag
    6      0.204D-03      0.360D-04       -76.06267158     75.327849    0.06565    0.00577    0.80410    5    diag
    7      0.582D-04      0.732D-05       -76.06267165     75.327997    0.06564    0.00584    0.80397    6    diag
    8      0.127D-04      0.133D-05       -76.06267165     75.327984    0.06564    0.00585    0.80393    7    diag
    9      0.237D-05      0.165D-06       -76.06267165     75.327969    0.06564    0.00585    0.80393    0    orth

 Final occupancy:   5

 !RHF STATE 1.1 Energy                -76.062671647575
 Nuclear energy                         9.02984080
 One-electron energy                 -122.75649690
 Two-electron energy                   37.66398445
 Virial quotient                       -1.00173786
 !RHF STATE 1.1 Dipole moment           0.06563868     0.00584871     0.80392628
 Dipole moment /Debye                   0.16682595     0.01486496     2.04324295

 Orbital energies:

         1.1          2.1          3.1          4.1          5.1          6.1          7.1
    -20.569180    -1.345706    -0.703112    -0.586427    -0.509840     0.101395     0.122035

 HOMO      5.1    -0.509840 =     -13.8735eV
 LUMO      6.1     0.101395 =       2.7591eV
 LUMO-HOMO         0.611235 =      16.6326eV


 **********************************************************************************************************************************
 DATASETS  * FILE   NREC   LENGTH (MB)   RECORD NAMES
              1      19       79.03       500      610      700      900      950      970     1000      129      960     1100   
                                          VAR    BASINP    GEOM    SYMINP    ZMAT    AOBASIS   BASIS     P2S    ABASIS      S 
                                         1400     1410     1200     1210     1080     1600     1650     1300     1700   
                                           T        V       H0       H01     AOSYM     SMH    MOLCAS    ERIS     OPER   

              2       4        2.95       700     1000      520     2100   
                                         GEOM     BASIS   MCVARS     RHF  

 PROGRAMS   *        TOTAL        HF       INT
 CPU TIMES  *         1.37      0.60      0.67
 REAL TIME  *         2.35 SEC
 DISK USED  *       216.12 MB      
 **********************************************************************************************************************************


 PROGRAM * CCSD (Closed-shell coupled cluster)     Authors: C. Hampel, H.-J. Werner, 1991, M. Deegan, P.J. Knowles, 1992

                                  CCSD-F12 implementation by  H.-J. Werner, 2007

                   Density fitting integral evaluation by F.R. Manby, 2003,2007, G. Knizia, 2010

 Basis set AUG-CC-PVTZ/JKFIT generated.  Number of basis functions:   196 
 Basis set CC-PVTZ-F12/OPTRI generated.  Number of basis functions:   157 
 Basis set AUG-CC-PVTZ/MP2FIT generated. Number of basis functions:   198 

 Convergence thresholds:  THRVAR = 1.00D-08  THRDEN = 1.00D-06

 CCSD(T)     terms to be evaluated (factor= 1.000)


 Number of core orbitals:           1 (   1 )
 Number of closed-shell orbitals:   4 (   4 )
 Number of external orbitals:      84 (  84 )

 Molecular orbitals read from record     2100.2  Type=RHF/CANONICAL (state 1.1)

 MP2-F12 correlation treatment (H.-J. Werner, 2006)
 ==================================================

 Using MP2-F12 with ansatz 3C(FIX)

 Using projected zeroth-order Hamiltonian (+Z)

 FOCKRIB=T FOCKRIC=T FOCKRIP=T CABSP=T CABSA=T CABSK=T CABSF=T GBC=F EBC=F DMAT=T NOFIK=T NOPAO=1 SOLVE=-1  USEPAO=0
 EXCH_A= T EXCH_B= F EXCH_C= F EXCH_P= F
 
 Geminal basis:    OPTFULL  GEM_TYPE=SLATER  BETA=1.0  NGEM=6

 Optimizing Gaussian exponents for each gem_beta

 Geminal optimization for beta= 1.0000
 Weight function:   m=0, omega= 1.4646

 Augmented Hessian optimization of geminal fit. Trust ratio= 0.40000
 Convergence reached after   2 iterations. Final gradient= 8.12D-16, Step= 4.39D-06, Delta= 1.28D-09
 
 Alpha:                 0.19532     0.81920     2.85917     9.50073    35.69989   197.79328
 Coeff:                 0.27070     0.30552     0.18297     0.10986     0.06810     0.04224
 

 All pairs explicitly correlated. Number of r12-pairs:           10

 Excluding core orbitals from MO domains
 
 AO(A)-basis ORBITAL           loaded. Number of functions:      89
 RI(R)-basis CC-PVTZ-F12/OPTRI loaded. Number of functions:     157
 DF-basis AUG-CC-PVTZ/JKFIT    loaded. Number of functions:     196

 Screening thresholds:   THRAO=  1.00D-10  THRMO=  1.00D-09  THRPROD=  1.00D-09
                         THRSW=  1.00D-05  THROV=  1.00D-12  THRAOF12=   1.00D-08

 CPU time for Fock operators                      0.37 sec
 
 Construction of ABS:
 Smallest eigenvalue of S          8.10E-04  (threshold= 1.00E-08)
 Ratio eigmin/eigmax               1.36E-04  (threshold= 1.00E-09)
 Smallest eigenvalue of S kept     8.10E-04  (threshold= 8.10E-04, 0 functions deleted, 157 kept)
 
 Construction of CABS:
 Smallest eigenvalue of S          2.02E-06  (threshold= 1.00E-08)
 Ratio eigmin/eigmax               2.02E-06  (threshold= 1.00E-09)
 Smallest eigenvalue of S kept     2.02E-06  (threshold= 2.02E-06, 0 functions deleted, 157 kept)
 
 CPU time for CABS singles                        0.01 sec

 CABS-singles contribution of  -0.00097885 patched into reference energy.
 New reference energy         -76.06365049
 
 AO(A)-basis ORBITAL           loaded. Number of functions:      89
 RI(R)-basis CC-PVTZ-F12/OPTRI loaded. Number of functions:     157
 DF-basis AUG-CC-PVTZ/MP2FIT   loaded. Number of functions:     198

 Screening thresholds:   THRAO=  1.00D-10  THRMO=  1.00D-09  THRPROD=  1.00D-09
                         THRSW=  1.00D-05  THROV=  1.00D-12  THRAOF12=   1.00D-08

 CPU time for 3-index integral evaluation         0.50 sec
 CPU time for first  half transformation          0.03 sec ( 5878.7 MFLOP/sec)
 CPU time for sorting                             0.01 sec
 CPU time for tilde quantities                    0.01 sec (10820.3 MFLOP/sec)
 CPU time for assembly                            0.03 sec (17837.5 MFLOP/sec)
 CPU time for tranop_f12                          0.03 sec (21731.0 MFLOP/sec)
 CPU time for f12 integrals (total)               0.68 sec, Elapsed time:      0.70 sec
 CPU time for f12 matrices (total)                0.02 sec, Elapsed time:      0.02 sec

 Diagonal F12 approximation with fixed coefficients:  TSING= 0.500,  TTRIP= 0.250 (scaled by -1/beta)

 DF-MP2-F12 energy corrections:
 ==============================
 Approx.                                    Singlet             Triplet             Total
 DF-MP2-F12/3*C(DX,FIX)                -0.025162800443     -0.003006183777     -0.028168984220
 DF-MP2-F12/3*C(FIX)                   -0.023390126884     -0.002721006552     -0.026111133436
 DF-MP2-F12/3C(FIX)                    -0.023313945581     -0.002816976511     -0.026130922092

 DF-MP2-F12 correlation energies:
 ================================
 Approx.                                    Singlet             Triplet             Ecorr            Total Energy
 DF-MP2                                -0.174878517211     -0.099771257710     -0.274649774920    -76.338300269320
 DF-MP2-F12/3*C(DX,FIX)                -0.200041317654     -0.102777441486     -0.302818759140    -76.366469253540
 DF-MP2-F12/3*C(FIX)                   -0.198268644095     -0.102492264261     -0.300760908356    -76.364411402756
 DF-MP2-F12/3C(FIX)                    -0.198192462791     -0.102588234220     -0.300780697012    -76.364431191412

 SCS-DF-MP2 energies (F_SING= 1.20000  F_TRIP= 0.62222  F_PARALLEL= 0.33333):
 ============================================================================
 SCS-DF-MP2                            -0.271934114339    -76.335584608739
 SCS-DF-MP2-F12/3*C(DX,FIX)            -0.303999989221    -76.367650483621
 SCS-DF-MP2-F12/3*C(FIX)               -0.301695337343    -76.365345831743
 SCS-DF-MP2-F12/3C(FIX)                -0.301663634420    -76.365314128820
 Symmetry transformation completed.

 Number of N-1 electron functions:               4
 Number of N-2 electron functions:              10
 Number of singly external CSFs:               336
 Number of doubly external CSFs:             56616
 Total number of CSFs:                       56953

 Length of J-op  integral file:               9.11 MB
 Length of K-op  integral file:              14.70 MB
 Length of 3-ext integral record:             0.00 MB

 Memory could be reduced to 4.35 Mwords without degradation in triples

 Integral transformation finished. Total CPU:   0.17 sec, npass=  1  Memory used:   2.09 MW

 Reference energy:                    -76.06365049

 Adding F12 terms to K(Cij), methodcc=6,  factor= 1.0

 ITER.      SQ.NORM     CORR.ENERGY   TOTAL ENERGY   ENERGY CHANGE        DEN1      VAR(S)    VAR(P)  DIIS     TIME  TIME/IT
   1      1.06260632    -0.27478829   -76.33843878    -0.00009575     0.00590006  0.76D-03  0.10D-02  1  1     1.49     0.16
   2      1.06599406    -0.27452724   -76.33817773     0.00026105    -0.00467837  0.14D-04  0.11D-03  2  2     1.65     0.16
   3      1.06720545    -0.27466135   -76.33831184    -0.00013411    -0.00081893  0.91D-05  0.72D-05  3  3     1.81     0.16
   4      1.06776294    -0.27468362   -76.33833411    -0.00002227    -0.00036416  0.44D-06  0.56D-06  4  4     1.96     0.16
   5      1.06785731    -0.27468204   -76.33833253     0.00000158    -0.00002077  0.13D-06  0.35D-07  5  5     2.11     0.16
   6      1.06788271    -0.27468070   -76.33833120     0.00000133    -0.00000424  0.11D-07  0.35D-08  6  6     2.25     0.16
   7      1.06788918    -0.27468031   -76.33833081     0.00000039    -0.00000147  0.97D-09  0.27D-09  6  1     2.41     0.16
   8      1.06789067    -0.27468037   -76.33833086    -0.00000006    -0.00000001  0.75D-10  0.30D-10  6  2     2.56     0.16

 Norm of t1 vector:      0.03624384      S-energy:    -0.00000012      T1 diagnostic:  0.00906096
                                                                       D1 diagnostic:  0.01821412

 Adding energy correction from Wij-K(Fij), methodcc=6  factor= 1.0
 
  CCSD correlation energy              -0.274680368838
  MP2-F12 correction (uncoupled)       -0.025005317026
  C*T doubles correction               -0.000842466213
  f12b correction                       0.004281125758


 Total CPU time for triples:      0.79 sec


 RESULTS
 =======

  Reference energy                    -76.062671647575
  F12 singles correction               -0.000978846826

 F12 singles corrections added to reference energy

  New reference energy                -76.063650494400

  F12a singlet correction              -0.023137092598
  F12a triplet correction              -0.002710690641
  F12a total correction                -0.025847783239

 F12a corrections for ansatz F12/3C(FIX) added to CCSD energy
 
  CCSD-F12a singlet pair energy        -0.209640795880
  CCSD-F12a triplet pair energy        -0.090887236508
  CCSD-F12a correlation energy         -0.300528152077

  Triples (T) contribution             -0.008912400392
  Total correlation energy             -0.309440552469

  CCSD-F12a total energy              -76.364178646477
  CCSD[T]-F12a energy                 -76.373398778479
  CCSD-T-F12a energy                  -76.372955899300
 !CCSD(T)-F12a total energy           -76.373091046869

 F12b corrections for ansatz F12/3C(FIX) added to CCSD(T)-F12a energy

  CCSD-F12b singlet pair energy        -0.205670485182
  CCSD-F12b triplet pair energy        -0.090576421448
  CCSD-F12b correlation energy         -0.296247026319

  Triples (T) contribution             -0.008912400392
  Total correlation energy             -0.305159426711

  CCSD-F12b total energy              -76.359897520719
  CCSD[T]-F12b energy                 -76.369117652721
  CCSD-T-F12b energy                  -76.368674773542
 !CCSD(T)-F12b total energy           -76.368809921111

 Timing summary (sec):

 STEP                 CPU(USER)    SYS     CPU(TOT)    WALL
 Transformation          0.17      0.03      0.20      0.20
 CCSD iterations         1.27      0.11      1.38      1.37
 Triples                 0.79      0.00      0.79      0.79
 MP2-F12                 1.12      0.03      1.15      1.16
 F12b energy             0.12      0.00      0.12      0.13

 Program statistics:

 Available memory in ccsd:                49999786
 Min. memory needed in ccsd:                269472
 Max. memory used in ccsd:                  308684
 Max. memory used in cckext:                227914 ( 9 integral passes)



 **********************************************************************************************************************************
 DATASETS  * FILE   NREC   LENGTH (MB)   RECORD NAMES
              1      20       89.71       500      610      700      900      950      970     1000      129      960     1100   
                                          VAR    BASINP    GEOM    SYMINP    ZMAT    AOBASIS   BASIS     P2S    ABASIS      S 
                                         1400     1410     1200     1210     1080     1600     1650     1300     1700     1380   
                                           T        V       H0       H01     AOSYM     SMH    MOLCAS    ERIS     OPER     JKOP   

              2       6        3.11       700     1000      520     2100     7360     7350   
                                         GEOM     BASIS   MCVARS     RHF    F12ABS    EF12   

 PROGRAMS   *        TOTAL   CCSD(T)        HF       INT
 CPU TIMES  *         4.88      3.49      0.60      0.67
 REAL TIME  *         6.72 SEC
 DISK USED  *       216.12 MB      
 **********************************************************************************************************************************

 CCSD(T)-F12/cc-pVTZ-F12 energy=    -76.368809921111

     CCSD(T)-F12        HF-SCF  
    -76.36880992    -76.06267165
 **********************************************************************************************************************************
 Molpro calculation terminated
 Variable memory released
