
 Primary working directories    : /tmp/r2518/22910.maple
 Secondary working directories  : /tmp/r2518/22910.maple
 Wavefunction directory         : /ddn/home1/r2518/wfu/
 Main file repository           : /tmp/r2518/22910.maple/

 SHA1      : d5ffa45e93fdbca01ffc919aa182cfdae0147319
 NAME      : 2015.1.35
 ARCHNAME  : linux/x86_64
 FC        : /opt/intel/composer_xe_2015.1.133/bin/intel64/ifort
 BLASLIB   : -Wl,-_start-group /opt/intel/mkl/lib/intel64/libmkl_intel_ilp64.a /opt/intel/mkl/lib/intel64/libmkl_intel_thread.a /opt/intel/mkl/lib/intel64/libmkl_core.a -Wl,-_end-group
 id        : olemiss

 Nodes     nprocs
 cn058        1

 Using customized tuning parameters: mindgm=1; mindgv=20; mindgc=4; mindgr=1; noblas=0; minvec=7
 default implementation of scratch files=df  

 memory,50,m
 nocompress;
 geomtyp=xyz
 angstrom
 geometry={
 O,0.0,-0.05,-0.0657441568
 H,0.0,0.8074590974,0.5217905143
 H,0.0,-0.7574590974,0.5217905143
 }
 basis=cc-pVTZ-F12
 set,charge=0
 set,spin=0
 hf
 {CCSD(T)-F12}

 Variables initialized (889), CPU time= 0.01 sec
 Commands  initialized (702), CPU time= 0.01 sec, 572 directives.
 Default parameters read. Elapsed time= 0.06 sec

 Checking input...
 Passed
1


                                         ***  PROGRAM SYSTEM MOLPRO  ***
                                       Copyright, TTI GmbH Stuttgart, 2015
                                    Version 2015.1 linked Jul  9 2018 13:16:40


 **********************************************************************************************************************************
 LABEL *                                                                                 
  64 bit serial version                                                                  DATE: 28-Aug-19          TIME: 15:37:34  
 **********************************************************************************************************************************

 SHA1:             d5ffa45e93fdbca01ffc919aa182cfdae0147319
 **********************************************************************************************************************************

 Input parameters for SORTINT:

 COMPRESS =    0.000000
 C_FINAL  =    1.000000
 DEBUG    =   -1.000000
 C_SORT1  =    0.000000
 C_SEWARD =    0.000000
 THRESH   =    0.000000
 IO       =  molpro                                                          
 SPRI     =    0.000000
 SETTING GEOMTYP        =    XYZ
 ZUNIT=ANG
 

 Variable memory set to   50000000 words,  buffer space   230000 words

 SETTING BASIS          =    CC-PVTZ-F12
 SETTING CHARGE         =     0.00000000D+00                                  
 SETTING SPIN           =     0.00000000D+00                                  


 Recomputing integrals since basis changed


 Using spherical harmonics

 Library entry O      S cc-pVTZ-F12          selected for orbital group  1
 Library entry O      P cc-pVTZ-F12          selected for orbital group  1
 Library entry O      D cc-pVTZ-F12          selected for orbital group  1
 Library entry O      F cc-pVTZ-F12          selected for orbital group  1
 Library entry H      S cc-pVTZ-F12          selected for orbital group  2
 Library entry H      P cc-pVTZ-F12          selected for orbital group  2
 Library entry H      D cc-pVTZ-F12          selected for orbital group  2


 PROGRAM * SEWARD (Integral evaluation for generally contracted gaussian basis sets)     Author: Roland Lindh, 1990

 Geometry written to block  1 of record 700


 Point group  Cs  



 ATOMIC COORDINATES

 NR  ATOM    CHARGE       X              Y              Z

   1  O       8.00    0.000000000   -0.094486306   -0.124238451
   2  H       1.00    0.000000000    1.525876551    0.986041166
   3  H       1.00    0.000000000   -1.431390245    0.986041166

 Bond lengths in Bohr (Angstrom)

 1-2  1.964254723  1-3  1.737824205
     ( 1.039438836)     ( 0.919616966)

 Bond angles

  2-1-3  105.87174285

 NUCLEAR CHARGE:                   10
 NUMBER OF PRIMITIVE AOS:         114
 NUMBER OF SYMMETRY AOS:          103
 NUMBER OF CONTRACTIONS:           89   (  61A'  +  28A"  )
 NUMBER OF CORE ORBITALS:           1   (   1A'  +   0A"  )
 NUMBER OF VALENCE ORBITALS:        6   (   5A'  +   1A"  )


 NUCLEAR REPULSION ENERGY    9.01439918

 Eigenvalues of metric

         1 0.218E-03 0.483E-03 0.580E-03 0.714E-03 0.818E-03 0.161E-02 0.204E-02 0.225E-02
         2 0.692E-03 0.745E-02 0.140E-01 0.443E-01 0.836E-01 0.908E-01 0.130E+00 0.189E+00


 Contracted 2-electron integrals neglected if value below      1.0D-11

        3628584. INTEGRALS WRITTEN OUT IN     887 BLOCKS ON RECORD 1290 OF FILE 1


 NUMBER OF SORTED TWO-ELECTRON INTEGRALS:    4174745.     BUFFER LENGTH:  32768
 NUMBER OF SEGMENTS:   1  SEGMENT LENGTH:    4174745      RECORD LENGTH: 524288

 Memory used in sort:       4.73 MW

 SORT1 READ     3628584. AND WROTE     3690308. INTEGRALS IN     11 RECORDS. CPU TIME:     0.11 SEC, REAL TIME:     0.15 SEC
 SORT2 READ     3690308. AND WROTE     4174745. INTEGRALS IN      1 RECORDS. CPU TIME:     0.11 SEC, REAL TIME:     0.12 SEC

 FILE SIZES:   FILE 1:    78.3 MBYTE,  FILE 4:    46.2 MBYTE,   TOTAL:    124.4 MBYTE

 OPERATOR DM      FOR CENTER  0  COORDINATES:    0.000000    0.000000    0.000000


 **********************************************************************************************************************************
 DATASETS  * FILE   NREC   LENGTH (MB)   RECORD NAMES
              1      19       50.78       500      610      700      900      950      970     1000      129      960     1100   
                                          VAR    BASINP    GEOM    SYMINP    ZMAT    AOBASIS   BASIS     P2S    ABASIS      S 
                                         1400     1410     1200     1210     1080     1600     1650     1300     1700   
                                           T        V       H0       H01     AOSYM     SMH    MOLCAS    ERIS     OPER   

 PROGRAMS   *        TOTAL       INT
 CPU TIMES  *         0.74      0.63
 REAL TIME  *         1.03 SEC
 DISK USED  *       124.76 MB      
 **********************************************************************************************************************************


 PROGRAM * RHF-SCF (CLOSED SHELL)       Authors: W. Meyer, H.-J. Werner


 NUMBER OF ELECTRONS:       5+    5-
 CONVERGENCE THRESHOLDS:    1.00E-05 (Density)    1.00E-07 (Energy)
 MAX. NUMBER OF ITERATIONS:       60
 INTERPOLATION TYPE:            DIIS
 INTERPOLATION STEPS:              2 (START)      1 (STEP)
 LEVEL SHIFTS:                  0.00 (CLOSED)  0.00 (OPEN) 



 Orbital guess generated from atomic densities. Full valence occupancy:    6   1

 Molecular orbital dump at record        2100.2

 Initial occupancy:   4   1

 ITERATION    DDIFF          GRAD             ENERGY        2-EL.EN.            DIPOLE MOMENTS         DIIS   ORB.
    1      0.000D+00      0.000D+00       -76.01692653     77.476360    0.00000    0.18718    1.14550    0    start
    2      0.000D+00      0.137D-01       -76.04429905     73.744698    0.00000    0.07158    0.66992    1    diag
    3      0.148D-01      0.880D-02       -76.05628164     75.392583    0.00000    0.09253    0.78792    2    diag
    4      0.521D-02      0.823D-03       -76.05649775     75.302012    0.00000    0.08435    0.78287    3    diag
    5      0.763D-03      0.242D-03       -76.05652322     75.316477    0.00000    0.08096    0.78074    4    diag
    6      0.282D-03      0.515D-04       -76.05652512     75.315195    0.00000    0.07985    0.78012    5    diag
    7      0.839D-04      0.110D-04       -76.05652522     75.315337    0.00000    0.07956    0.77991    6    diag
    8      0.194D-04      0.202D-05       -76.05652522     75.315320    0.00000    0.07953    0.77985    7    diag
    9      0.355D-05      0.308D-06       -76.05652522     75.315306    0.00000    0.07953    0.77985    0    orth

 Final occupancy:   4   1

 !RHF STATE 1.1 Energy                -76.056525220114
 Nuclear energy                         9.01439918
 One-electron energy                 -122.72857739
 Two-electron energy                   37.65765299
 Virial quotient                       -1.00164816
 !RHF STATE 1.1 Dipole moment           0.00000000     0.07953088     0.77985023
 Dipole moment /Debye                   0.00000000     0.20213409     1.98205175

 Orbital energies:

         1.1          2.1          3.1          4.1          5.1          6.1
    -20.567357    -1.344141    -0.709629    -0.576889     0.101921     0.120743

         1.2          2.2          3.2
     -0.508619     0.145542     0.476838

 HOMO      1.2    -0.508619 =     -13.8402eV
 LUMO      5.1     0.101921 =       2.7734eV
 LUMO-HOMO         0.610540 =      16.6136eV


 **********************************************************************************************************************************
 DATASETS  * FILE   NREC   LENGTH (MB)   RECORD NAMES
              1      19       50.78       500      610      700      900      950      970     1000      129      960     1100   
                                          VAR    BASINP    GEOM    SYMINP    ZMAT    AOBASIS   BASIS     P2S    ABASIS      S 
                                         1400     1410     1200     1210     1080     1600     1650     1300     1700   
                                           T        V       H0       H01     AOSYM     SMH    MOLCAS    ERIS     OPER   

              2       4        2.88       700     1000      520     2100   
                                         GEOM     BASIS   MCVARS     RHF  

 PROGRAMS   *        TOTAL        HF       INT
 CPU TIMES  *         0.98      0.24      0.63
 REAL TIME  *         1.45 SEC
 DISK USED  *       124.76 MB      
 **********************************************************************************************************************************


 PROGRAM * CCSD (Closed-shell coupled cluster)     Authors: C. Hampel, H.-J. Werner, 1991, M. Deegan, P.J. Knowles, 1992

                                  CCSD-F12 implementation by  H.-J. Werner, 2007

                   Density fitting integral evaluation by F.R. Manby, 2003,2007, G. Knizia, 2010

 Basis set AUG-CC-PVTZ/JKFIT generated.  Number of basis functions:   196 
 Basis set CC-PVTZ-F12/OPTRI generated.  Number of basis functions:   157 
 Basis set AUG-CC-PVTZ/MP2FIT generated. Number of basis functions:   198 

 Convergence thresholds:  THRVAR = 1.00D-08  THRDEN = 1.00D-06

 CCSD(T)     terms to be evaluated (factor= 1.000)


 Number of core orbitals:           1 (   1   0 )
 Number of closed-shell orbitals:   4 (   3   1 )
 Number of external orbitals:      84 (  57  27 )

 Molecular orbitals read from record     2100.2  Type=RHF/CANONICAL (state 1.1)

 MP2-F12 correlation treatment (H.-J. Werner, 2006)
 ==================================================

 Using MP2-F12 with ansatz 3C(FIX)

 Using projected zeroth-order Hamiltonian (+Z)

 FOCKRIB=T FOCKRIC=T FOCKRIP=T CABSP=T CABSA=T CABSK=T CABSF=T GBC=F EBC=F DMAT=T NOFIK=T NOPAO=1 SOLVE=-1  USEPAO=0
 EXCH_A= T EXCH_B= F EXCH_C= F EXCH_P= F
 
 Geminal basis:    OPTFULL  GEM_TYPE=SLATER  BETA=1.0  NGEM=6

 Optimizing Gaussian exponents for each gem_beta

 Geminal optimization for beta= 1.0000
 Weight function:   m=0, omega= 1.4646

 Augmented Hessian optimization of geminal fit. Trust ratio= 0.40000
 Convergence reached after   2 iterations. Final gradient= 8.41D-16, Step= 4.29D-06, Delta= 1.28D-09
 
 Alpha:                 0.19532     0.81920     2.85917     9.50073    35.69989   197.79328
 Coeff:                 0.27070     0.30552     0.18297     0.10986     0.06810     0.04224
 

 Symmetry turned off. Reference energy:        -76.056525220114

 All pairs explicitly correlated. Number of r12-pairs:           10

 Excluding core orbitals from MO domains
 
 AO(A)-basis ORBITAL           loaded. Number of functions:      89
 RI(R)-basis CC-PVTZ-F12/OPTRI loaded. Number of functions:     157
 DF-basis AUG-CC-PVTZ/JKFIT    loaded. Number of functions:     196

 Screening thresholds:   THRAO=  1.00D-10  THRMO=  1.00D-09  THRPROD=  1.00D-09
                         THRSW=  1.00D-05  THROV=  1.00D-12  THRAOF12=   1.00D-08

 CPU time for Fock operators                      1.06 sec
 
 Construction of ABS:
 Smallest eigenvalue of S          7.30E-04  (threshold= 1.00E-08)
 Ratio eigmin/eigmax               1.23E-04  (threshold= 1.00E-09)
 Smallest eigenvalue of S kept     7.30E-04  (threshold= 7.30E-04, 0 functions deleted, 157 kept)
 
 Construction of CABS:
 Smallest eigenvalue of S          1.88E-06  (threshold= 1.00E-08)
 Ratio eigmin/eigmax               1.88E-06  (threshold= 1.00E-09)
 Smallest eigenvalue of S kept     1.88E-06  (threshold= 1.88E-06, 0 functions deleted, 157 kept)
 
 CPU time for CABS singles                        0.01 sec

 CABS-singles contribution of  -0.00097803 patched into reference energy.
 New reference energy         -76.05750325
 
 AO(A)-basis ORBITAL           loaded. Number of functions:      89
 RI(R)-basis CC-PVTZ-F12/OPTRI loaded. Number of functions:     157
 DF-basis AUG-CC-PVTZ/MP2FIT   loaded. Number of functions:     198

 Screening thresholds:   THRAO=  1.00D-10  THRMO=  1.00D-09  THRPROD=  1.00D-09
                         THRSW=  1.00D-05  THROV=  1.00D-12  THRAOF12=   1.00D-08

 CPU time for 3-index integral evaluation         0.56 sec
 CPU time for first  half transformation          0.03 sec ( 5878.7 MFLOP/sec)
 CPU time for sorting                             0.01 sec
 CPU time for fitting                             0.01 sec ( 8185.8 MFLOP/sec)
 CPU time for tilde quantities                    0.01 sec (10820.3 MFLOP/sec)
 CPU time for assembly                            0.02 sec (26756.3 MFLOP/sec)
 CPU time for tranop_f12                          0.02 sec (32596.5 MFLOP/sec)
 CPU time for f12 integrals (total)               1.53 sec, Elapsed time:      1.57 sec
 CPU time for f12 matrices (total)                0.01 sec, Elapsed time:      0.02 sec

 Diagonal F12 approximation with fixed coefficients:  TSING= 0.500,  TTRIP= 0.250 (scaled by -1/beta)

 DF-MP2-F12 energy corrections:
 ==============================
 Approx.                                    Singlet             Triplet             Total
 DF-MP2-F12/3*C(DX,FIX)                -0.025181390687     -0.003005322558     -0.028186713245
 DF-MP2-F12/3*C(FIX)                   -0.023408632417     -0.002719343981     -0.026127976398
 DF-MP2-F12/3C(FIX)                    -0.023330825572     -0.002814898533     -0.026145724105

 DF-MP2-F12 correlation energies:
 ================================
 Approx.                                    Singlet             Triplet             Ecorr            Total Energy
 DF-MP2                                -0.174938105464     -0.099672377297     -0.274610482761    -76.332113729493
 DF-MP2-F12/3*C(DX,FIX)                -0.200119496150     -0.102677699856     -0.302797196006    -76.360300442737
 DF-MP2-F12/3*C(FIX)                   -0.198346737880     -0.102391721279     -0.300738459159    -76.358241705891
 DF-MP2-F12/3C(FIX)                    -0.198268931035     -0.102487275831     -0.300756206866    -76.358259453598

 SCS-DF-MP2 energies (F_SING= 1.20000  F_TRIP= 0.62222  F_PARALLEL= 0.33333):
 ============================================================================
 SCS-DF-MP2                            -0.271944094652    -76.329447341384
 SCS-DF-MP2-F12/3*C(DX,FIX)            -0.304031741957    -76.361534988689
 SCS-DF-MP2-F12/3*C(FIX)               -0.301726489808    -76.359229736539
 SCS-DF-MP2-F12/3C(FIX)                -0.301692577759    -76.359195824491

 Symmetry restored.
 Symmetry transformation completed.

 Number of N-1 electron functions:               4
 Number of N-2 electron functions:              10
 Number of singly external CSFs:               198
 Number of doubly external CSFs:             29292
 Total number of CSFs:                       29491

 Length of J-op  integral file:               8.97 MB
 Length of K-op  integral file:              13.62 MB
 Length of 3-ext integral record:             0.00 MB

 Memory could be reduced to 2.37 Mwords without degradation in triples

 Integral transformation finished. Total CPU:   0.05 sec, npass=  1  Memory used:   0.62 MW

 Reference energy:                    -76.05750325

 Adding F12 terms to K(Cij), methodcc=6,  factor= 1.0

 ITER.      SQ.NORM     CORR.ENERGY   TOTAL ENERGY   ENERGY CHANGE        DEN1      VAR(S)    VAR(P)  DIIS     TIME  TIME/IT
   1      1.06283896    -0.27481054   -76.33231379    -0.00015663     0.00587225  0.77D-03  0.10D-02  1  1     2.92     0.07
   2      1.06629487    -0.27456852   -76.33207177     0.00024202    -0.00470655  0.14D-04  0.11D-03  2  2     2.99     0.07
   3      1.06755413    -0.27470751   -76.33221075    -0.00013898    -0.00083803  0.94D-05  0.76D-05  3  3     3.07     0.07
   4      1.06813587    -0.27473028   -76.33223353    -0.00002278    -0.00037328  0.45D-06  0.59D-06  4  4     3.14     0.07
   5      1.06823474    -0.27472864   -76.33223188     0.00000165    -0.00002165  0.13D-06  0.37D-07  5  5     3.21     0.07
   6      1.06826092    -0.27472731   -76.33223056     0.00000132    -0.00000436  0.11D-07  0.37D-08  6  6     3.26     0.07
   7      1.06826760    -0.27472693   -76.33223018     0.00000038    -0.00000152  0.11D-08  0.29D-09  6  1     3.32     0.07
   8      1.06826914    -0.27472699   -76.33223024    -0.00000006    -0.00000001  0.92D-10  0.34D-10  6  2     3.39     0.07

 Norm of t1 vector:      0.03654770      S-energy:    -0.00000013      T1 diagnostic:  0.00913692
                                                                       D1 diagnostic:  0.01819331

 Adding energy correction from Wij-K(Fij), methodcc=6  factor= 1.0
 
  CCSD correlation energy              -0.274726993348
  MP2-F12 correction (uncoupled)       -0.025024125886
  C*T doubles correction               -0.000839623458
  f12b correction                       0.004284591419


 Total CPU time for triples:      0.30 sec


 RESULTS
 =======

  Reference energy                    -76.056525220114
  F12 singles correction               -0.000978026618

 F12 singles corrections added to reference energy

  New reference energy                -76.057503246732

  F12a singlet correction              -0.023154849161
  F12a triplet correction              -0.002708900183
  F12a total correction                -0.025863749344

 F12a corrections for ansatz F12/3C(FIX) added to CCSD energy
 
  CCSD-F12a singlet pair energy        -0.209816180562
  CCSD-F12a triplet pair energy        -0.090774434906
  CCSD-F12a correlation energy         -0.300590742692

  Triples (T) contribution             -0.008927187633
  Total correlation energy             -0.309517930326

  CCSD-F12a total energy              -76.358093989424
  CCSD[T]-F12a energy                 -76.367331356080
  CCSD-T-F12a energy                  -76.366884692561
 !CCSD(T)-F12a total energy           -76.367021177057

 F12b corrections for ansatz F12/3C(FIX) added to CCSD(T)-F12a energy

  CCSD-F12b singlet pair energy        -0.205842151491
  CCSD-F12b triplet pair energy        -0.090463872558
  CCSD-F12b correlation energy         -0.296306151273

  Triples (T) contribution             -0.008927187633
  Total correlation energy             -0.305233338907

  CCSD-F12b total energy              -76.353809398005
  CCSD[T]-F12b energy                 -76.363046764661
  CCSD-T-F12b energy                  -76.362600101142
 !CCSD(T)-F12b total energy           -76.362736585638

 Timing summary (sec):

 STEP                 CPU(USER)    SYS     CPU(TOT)    WALL
 Transformation          0.05      0.03      0.08      0.08
 CCSD iterations         0.58      0.08      0.66      0.67
 Triples                 0.30      0.01      0.31      0.31
 MP2-F12                 2.76      0.07      2.83      2.82
 F12b energy             0.05      0.00      0.05      0.06

 Program statistics:

 Available memory in ccsd:                49999786
 Min. memory needed in ccsd:                145972
 Max. memory used in ccsd:                  166319
 Max. memory used in cckext:                248663 ( 9 integral passes)



 **********************************************************************************************************************************
 DATASETS  * FILE   NREC   LENGTH (MB)   RECORD NAMES
              1      20       56.28       500      610      700      900      950      970     1000      129      960     1100   
                                          VAR    BASINP    GEOM    SYMINP    ZMAT    AOBASIS   BASIS     P2S    ABASIS      S 
                                         1400     1410     1200     1210     1080     1600     1650     1300     1700     1380   
                                           T        V       H0       H01     AOSYM     SMH    MOLCAS    ERIS     OPER     JKOP   

              2       6        2.97       700     1000      520     2100     7360     7350   
                                         GEOM     BASIS   MCVARS     RHF    F12ABS    EF12   

 PROGRAMS   *        TOTAL   CCSD(T)        HF       INT
 CPU TIMES  *         4.75      3.77      0.24      0.63
 REAL TIME  *         5.43 SEC
 DISK USED  *       124.76 MB      
 **********************************************************************************************************************************

 CCSD(T)-F12/cc-pVTZ-F12 energy=    -76.362736585638

     CCSD(T)-F12        HF-SCF  
    -76.36273659    -76.05652522
 **********************************************************************************************************************************
 Molpro calculation terminated
 Variable memory released
