
 Primary working directories    : /tmp/r2518/14653.maple
 Secondary working directories  : /tmp/r2518/14653.maple
 Wavefunction directory         : /ddn/home1/r2518/wfu/
 Main file repository           : /tmp/r2518/14653.maple/

 SHA1      : d5ffa45e93fdbca01ffc919aa182cfdae0147319
 NAME      : 2015.1.35
 ARCHNAME  : linux/x86_64
 FC        : /opt/intel/composer_xe_2015.1.133/bin/intel64/ifort
 BLASLIB   : -Wl,-_start-group /opt/intel/mkl/lib/intel64/libmkl_intel_ilp64.a /opt/intel/mkl/lib/intel64/libmkl_intel_thread.a /opt/intel/mkl/lib/intel64/libmkl_core.a -Wl,-_end-group
 id        : olemiss

 Nodes     nprocs
 cn059        1

 Using customized tuning parameters: mindgm=1; mindgv=20; mindgc=4; mindgr=1; noblas=0; minvec=7
 default implementation of scratch files=df  

 memory,50,m
 nocompress;
 geomtyp=xyz
 angstrom
 geometry={
 O,0.0,0.0,-0.0657441568
 H,0.0,0.7574590974000001,0.4717905143000001
 H,0.0,-0.7574590974,0.5217905143
 }
 basis=cc-pVTZ-F12
 set,charge=0
 set,spin=0
 hf
 {CCSD(T)-F12}

 Variables initialized (889), CPU time= 0.01 sec
 Commands  initialized (702), CPU time= 0.01 sec, 572 directives.
 Default parameters read. Elapsed time= 0.08 sec

 Checking input...
 Passed
1


                                         ***  PROGRAM SYSTEM MOLPRO  ***
                                       Copyright, TTI GmbH Stuttgart, 2015
                                    Version 2015.1 linked Jul  9 2018 13:16:40


 **********************************************************************************************************************************
 LABEL *                                                                                 
  64 bit serial version                                                                  DATE: 24-Aug-19          TIME: 16:30:50  
 **********************************************************************************************************************************

 SHA1:             d5ffa45e93fdbca01ffc919aa182cfdae0147319
 **********************************************************************************************************************************

 Input parameters for SORTINT:

 COMPRESS =    0.000000
 C_FINAL  =    1.000000
 DEBUG    =   -1.000000
 C_SORT1  =    0.000000
 C_SEWARD =    0.000000
 THRESH   =    0.000000
 IO       =  molpro                                                          
 SPRI     =    0.000000
 SETTING GEOMTYP        =    XYZ
 ZUNIT=ANG
 

 Variable memory set to   50000000 words,  buffer space   230000 words

 SETTING BASIS          =    CC-PVTZ-F12
 SETTING CHARGE         =     0.00000000D+00                                  
 SETTING SPIN           =     0.00000000D+00                                  


 Recomputing integrals since basis changed


 Using spherical harmonics

 Library entry O      S cc-pVTZ-F12          selected for orbital group  1
 Library entry O      P cc-pVTZ-F12          selected for orbital group  1
 Library entry O      D cc-pVTZ-F12          selected for orbital group  1
 Library entry O      F cc-pVTZ-F12          selected for orbital group  1
 Library entry H      S cc-pVTZ-F12          selected for orbital group  2
 Library entry H      P cc-pVTZ-F12          selected for orbital group  2
 Library entry H      D cc-pVTZ-F12          selected for orbital group  2


 PROGRAM * SEWARD (Integral evaluation for generally contracted gaussian basis sets)     Author: Roland Lindh, 1990

 Geometry written to block  1 of record 700


 Point group  Cs  



 ATOMIC COORDINATES

 NR  ATOM    CHARGE       X              Y              Z

   1  O       8.00    0.000000000    0.000000000   -0.124238451
   2  H       1.00    0.000000000    1.431390245    0.891554860
   3  H       1.00    0.000000000   -1.431390245    0.986041166

 Bond lengths in Bohr (Angstrom)

 1-2  1.755196309  1-3  1.811518385
     ( 0.928809887)     ( 0.958614247)

 Bond angles

  2-1-3  106.83890215

 NUCLEAR CHARGE:                   10
 NUMBER OF PRIMITIVE AOS:         114
 NUMBER OF SYMMETRY AOS:          103
 NUMBER OF CONTRACTIONS:           89   (  61A'  +  28A"  )
 NUMBER OF CORE ORBITALS:           1   (   1A'  +   0A"  )
 NUMBER OF VALENCE ORBITALS:        6   (   5A'  +   1A"  )


 NUCLEAR REPULSION ENERGY    9.32320020

 Eigenvalues of metric

         1 0.202E-03 0.429E-03 0.568E-03 0.706E-03 0.783E-03 0.156E-02 0.197E-02 0.211E-02
         2 0.689E-03 0.749E-02 0.959E-02 0.423E-01 0.835E-01 0.893E-01 0.120E+00 0.186E+00


 Contracted 2-electron integrals neglected if value below      1.0D-11

        3665601. INTEGRALS WRITTEN OUT IN     896 BLOCKS ON RECORD 1290 OF FILE 1


 NUMBER OF SORTED TWO-ELECTRON INTEGRALS:    4174745.     BUFFER LENGTH:  32768
 NUMBER OF SEGMENTS:   1  SEGMENT LENGTH:    4174745      RECORD LENGTH: 524288

 Memory used in sort:       4.73 MW

 SORT1 READ     3665601. AND WROTE     3728717. INTEGRALS IN     11 RECORDS. CPU TIME:     0.11 SEC, REAL TIME:     0.16 SEC
 SORT2 READ     3728717. AND WROTE     4174745. INTEGRALS IN      1 RECORDS. CPU TIME:     0.11 SEC, REAL TIME:     0.14 SEC

 FILE SIZES:   FILE 1:    78.9 MBYTE,  FILE 4:    46.2 MBYTE,   TOTAL:    125.0 MBYTE

 OPERATOR DM      FOR CENTER  0  COORDINATES:    0.000000    0.000000    0.000000


 **********************************************************************************************************************************
 DATASETS  * FILE   NREC   LENGTH (MB)   RECORD NAMES
              1      19       51.11       500      610      700      900      950      970     1000      129      960     1100   
                                          VAR    BASINP    GEOM    SYMINP    ZMAT    AOBASIS   BASIS     P2S    ABASIS      S 
                                         1400     1410     1200     1210     1080     1600     1650     1300     1700   
                                           T        V       H0       H01     AOSYM     SMH    MOLCAS    ERIS     OPER   

 PROGRAMS   *        TOTAL       INT
 CPU TIMES  *         0.72      0.62
 REAL TIME  *         1.17 SEC
 DISK USED  *       125.35 MB      
 **********************************************************************************************************************************


 PROGRAM * RHF-SCF (CLOSED SHELL)       Authors: W. Meyer, H.-J. Werner


 NUMBER OF ELECTRONS:       5+    5-
 CONVERGENCE THRESHOLDS:    1.00E-05 (Density)    1.00E-07 (Energy)
 MAX. NUMBER OF ITERATIONS:       60
 INTERPOLATION TYPE:            DIIS
 INTERPOLATION STEPS:              2 (START)      1 (STEP)
 LEVEL SHIFTS:                  0.00 (CLOSED)  0.00 (OPEN) 



 Orbital guess generated from atomic densities. Full valence occupancy:    6   1

 Molecular orbital dump at record        2100.2

 Initial occupancy:   4   1

 ITERATION    DDIFF          GRAD             ENERGY        2-EL.EN.            DIPOLE MOMENTS         DIIS   ORB.
    1      0.000D+00      0.000D+00       -76.02782123     77.883533    0.00000   -0.00967    1.09234    0    start
    2      0.000D+00      0.136D-01       -76.05463756     74.331580    0.00000    0.00361    0.66339    1    diag
    3      0.148D-01      0.834D-02       -76.06518504     75.877488    0.00000    0.00229    0.76840    2    diag
    4      0.498D-02      0.788D-03       -76.06536345     75.788441    0.00000    0.00396    0.76580    3    diag
    5      0.735D-03      0.208D-03       -76.06537990     75.801375    0.00000    0.00461    0.76477    4    diag
    6      0.245D-03      0.385D-04       -76.06538082     75.800573    0.00000    0.00482    0.76459    5    diag
    7      0.696D-04      0.729D-05       -76.06538086     75.800706    0.00000    0.00487    0.76450    6    diag
    8      0.146D-04      0.155D-05       -76.06538086     75.800700    0.00000    0.00488    0.76446    7    diag
    9      0.266D-05      0.202D-06       -76.06538086     75.800689    0.00000    0.00488    0.76445    0    orth

 Final occupancy:   4   1

 !RHF STATE 1.1 Energy                -76.065380861445
 Nuclear energy                         9.32320020
 One-electron energy                 -123.28892560
 Two-electron energy                   37.90034454
 Virial quotient                       -1.00024511
 !RHF STATE 1.1 Dipole moment           0.00000000     0.00488087     0.76445271
 Dipole moment /Debye                   0.00000000     0.01240511     1.94291772

 Orbital energies:

         1.1          2.1          3.1          4.1          5.1          6.1
    -20.561428    -1.358633    -0.730067    -0.582977     0.102102     0.119477

         1.2          2.2          3.2
     -0.511013     0.145157     0.479728

 HOMO      1.2    -0.511013 =     -13.9054eV
 LUMO      5.1     0.102102 =       2.7783eV
 LUMO-HOMO         0.613116 =      16.6837eV


 **********************************************************************************************************************************
 DATASETS  * FILE   NREC   LENGTH (MB)   RECORD NAMES
              1      19       51.11       500      610      700      900      950      970     1000      129      960     1100   
                                          VAR    BASINP    GEOM    SYMINP    ZMAT    AOBASIS   BASIS     P2S    ABASIS      S 
                                         1400     1410     1200     1210     1080     1600     1650     1300     1700   
                                           T        V       H0       H01     AOSYM     SMH    MOLCAS    ERIS     OPER   

              2       4        2.88       700     1000      520     2100   
                                         GEOM     BASIS   MCVARS     RHF  

 PROGRAMS   *        TOTAL        HF       INT
 CPU TIMES  *         0.99      0.27      0.62
 REAL TIME  *         1.61 SEC
 DISK USED  *       125.35 MB      
 **********************************************************************************************************************************


 PROGRAM * CCSD (Closed-shell coupled cluster)     Authors: C. Hampel, H.-J. Werner, 1991, M. Deegan, P.J. Knowles, 1992

                                  CCSD-F12 implementation by  H.-J. Werner, 2007

                   Density fitting integral evaluation by F.R. Manby, 2003,2007, G. Knizia, 2010

 Basis set AUG-CC-PVTZ/JKFIT generated.  Number of basis functions:   196 
 Basis set CC-PVTZ-F12/OPTRI generated.  Number of basis functions:   157 
 Basis set AUG-CC-PVTZ/MP2FIT generated. Number of basis functions:   198 

 Convergence thresholds:  THRVAR = 1.00D-08  THRDEN = 1.00D-06

 CCSD(T)     terms to be evaluated (factor= 1.000)


 Number of core orbitals:           1 (   1   0 )
 Number of closed-shell orbitals:   4 (   3   1 )
 Number of external orbitals:      84 (  57  27 )

 Molecular orbitals read from record     2100.2  Type=RHF/CANONICAL (state 1.1)

 MP2-F12 correlation treatment (H.-J. Werner, 2006)
 ==================================================

 Using MP2-F12 with ansatz 3C(FIX)

 Using projected zeroth-order Hamiltonian (+Z)

 FOCKRIB=T FOCKRIC=T FOCKRIP=T CABSP=T CABSA=T CABSK=T CABSF=T GBC=F EBC=F DMAT=T NOFIK=T NOPAO=1 SOLVE=-1  USEPAO=0
 EXCH_A= T EXCH_B= F EXCH_C= F EXCH_P= F
 
 Geminal basis:    OPTFULL  GEM_TYPE=SLATER  BETA=1.0  NGEM=6

 Optimizing Gaussian exponents for each gem_beta

 Geminal optimization for beta= 1.0000
 Weight function:   m=0, omega= 1.4646

 Augmented Hessian optimization of geminal fit. Trust ratio= 0.40000
 Convergence reached after   2 iterations. Final gradient= 8.41D-16, Step= 4.29D-06, Delta= 1.28D-09
 
 Alpha:                 0.19532     0.81920     2.85917     9.50073    35.69989   197.79328
 Coeff:                 0.27070     0.30552     0.18297     0.10986     0.06810     0.04224
 

 Symmetry turned off. Reference energy:        -76.065380861445

 All pairs explicitly correlated. Number of r12-pairs:           10

 Excluding core orbitals from MO domains
 
 AO(A)-basis ORBITAL           loaded. Number of functions:      89
 RI(R)-basis CC-PVTZ-F12/OPTRI loaded. Number of functions:     157
 DF-basis AUG-CC-PVTZ/JKFIT    loaded. Number of functions:     196

 Screening thresholds:   THRAO=  1.00D-10  THRMO=  1.00D-09  THRPROD=  1.00D-09
                         THRSW=  1.00D-05  THROV=  1.00D-12  THRAOF12=   1.00D-08

 CPU time for Fock operators                      1.06 sec
 
 Construction of ABS:
 Smallest eigenvalue of S          7.24E-04  (threshold= 1.00E-08)
 Ratio eigmin/eigmax               1.20E-04  (threshold= 1.00E-09)
 Smallest eigenvalue of S kept     7.24E-04  (threshold= 7.24E-04, 0 functions deleted, 157 kept)
 
 Construction of CABS:
 Smallest eigenvalue of S          1.71E-06  (threshold= 1.00E-08)
 Ratio eigmin/eigmax               1.71E-06  (threshold= 1.00E-09)
 Smallest eigenvalue of S kept     1.71E-06  (threshold= 1.71E-06, 0 functions deleted, 157 kept)
 
 CPU time for CABS singles                        0.01 sec

 CABS-singles contribution of  -0.00103645 patched into reference energy.
 New reference energy         -76.06641731
 
 AO(A)-basis ORBITAL           loaded. Number of functions:      89
 RI(R)-basis CC-PVTZ-F12/OPTRI loaded. Number of functions:     157
 DF-basis AUG-CC-PVTZ/MP2FIT   loaded. Number of functions:     198

 Screening thresholds:   THRAO=  1.00D-10  THRMO=  1.00D-09  THRPROD=  1.00D-09
                         THRSW=  1.00D-05  THROV=  1.00D-12  THRAOF12=   1.00D-08

 CPU time for 3-index integral evaluation         0.56 sec
 CPU time for first  half transformation          0.04 sec ( 4409.0 MFLOP/sec)
 CPU time for tilde quantities                    0.01 sec (10820.3 MFLOP/sec)
 CPU time for assembly                            0.03 sec (17837.5 MFLOP/sec)
 CPU time for tranop_f12                          0.03 sec (21731.0 MFLOP/sec)
 CPU time for f12 integrals (total)               1.55 sec, Elapsed time:      1.58 sec
 CPU time for f12 matrices (total)                0.01 sec, Elapsed time:      0.01 sec

 Diagonal F12 approximation with fixed coefficients:  TSING= 0.500,  TTRIP= 0.250 (scaled by -1/beta)

 DF-MP2-F12 energy corrections:
 ==============================
 Approx.                                    Singlet             Triplet             Total
 DF-MP2-F12/3*C(DX,FIX)                -0.025360427827     -0.003037905620     -0.028398333447
 DF-MP2-F12/3*C(FIX)                   -0.023538504155     -0.002742221940     -0.026280726095
 DF-MP2-F12/3C(FIX)                    -0.023461684354     -0.002838520980     -0.026300205334

 DF-MP2-F12 correlation energies:
 ================================
 Approx.                                    Singlet             Triplet             Ecorr            Total Energy
 DF-MP2                                -0.172982284983     -0.098757544345     -0.271739829328    -76.338157137799
 DF-MP2-F12/3*C(DX,FIX)                -0.198342712811     -0.101795449965     -0.300138162776    -76.366555471247
 DF-MP2-F12/3*C(FIX)                   -0.196520789138     -0.101499766285     -0.298020555423    -76.364437863894
 DF-MP2-F12/3C(FIX)                    -0.196443969337     -0.101596065325     -0.298040034662    -76.364457343133

 SCS-DF-MP2 energies (F_SING= 1.20000  F_TRIP= 0.62222  F_PARALLEL= 0.33333):
 ============================================================================
 SCS-DF-MP2                            -0.269027880683    -76.335445189155
 SCS-DF-MP2-F12/3*C(DX,FIX)            -0.301350646462    -76.367767954933
 SCS-DF-MP2-F12/3*C(FIX)               -0.298980357098    -76.365397665570
 SCS-DF-MP2-F12/3C(FIX)                -0.298948092740    -76.365365401211

 Symmetry restored.
 Symmetry transformation completed.

 Number of N-1 electron functions:               4
 Number of N-2 electron functions:              10
 Number of singly external CSFs:               198
 Number of doubly external CSFs:             29292
 Total number of CSFs:                       29491

 Length of J-op  integral file:               8.97 MB
 Length of K-op  integral file:              13.62 MB
 Length of 3-ext integral record:             0.00 MB

 Memory could be reduced to 2.37 Mwords without degradation in triples

 Integral transformation finished. Total CPU:   0.07 sec, npass=  1  Memory used:   0.62 MW

 Reference energy:                    -76.06641731

 Adding F12 terms to K(Cij), methodcc=6,  factor= 1.0

 ITER.      SQ.NORM     CORR.ENERGY   TOTAL ENERGY   ENERGY CHANGE        DEN1      VAR(S)    VAR(P)  DIIS     TIME  TIME/IT
   1      1.06046456    -0.27225407   -76.33867138    -0.00047187     0.00510700  0.68D-03  0.91D-03  1  1     2.96     0.07
   2      1.06351287    -0.27198299   -76.33840030     0.00027108    -0.00436197  0.11D-04  0.93D-04  2  2     3.02     0.07
   3      1.06455217    -0.27209889   -76.33851619    -0.00011590    -0.00073961  0.78D-05  0.58D-05  3  3     3.09     0.08
   4      1.06501751    -0.27211875   -76.33853605    -0.00001986    -0.00031711  0.38D-06  0.46D-06  4  4     3.15     0.08
   5      1.06509675    -0.27211722   -76.33853453     0.00000153    -0.00001710  0.11D-06  0.27D-07  5  5     3.22     0.08
   6      1.06511812    -0.27211603   -76.33853334     0.00000118    -0.00000353  0.90D-08  0.27D-08  6  6     3.29     0.08
   7      1.06512366    -0.27211569   -76.33853300     0.00000034    -0.00000128  0.75D-09  0.21D-09  6  1     3.35     0.08
   8      1.06512493    -0.27211575   -76.33853305    -0.00000006    -0.00000000  0.56D-10  0.22D-10  6  2     3.42     0.08

 Norm of t1 vector:      0.03384943      S-energy:    -0.00000009      T1 diagnostic:  0.00846236
                                                                       D1 diagnostic:  0.01680537

 Adding energy correction from Wij-K(Fij), methodcc=6  factor= 1.0
 
  CCSD correlation energy              -0.272115745836
  MP2-F12 correction (uncoupled)       -0.025182095608
  C*T doubles correction               -0.000841744859
  f12b correction                       0.004266419955


 Total CPU time for triples:      0.29 sec


 RESULTS
 =======

  Reference energy                    -76.065380861445
  F12 singles correction               -0.001036447026

 F12 singles corrections added to reference energy

  New reference energy                -76.066417308471

  F12a singlet correction              -0.023291186723
  F12a triplet correction              -0.002732653745
  F12a total correction                -0.026023840467

 F12a corrections for ansatz F12/3C(FIX) added to CCSD energy
 
  CCSD-F12a singlet pair energy        -0.207533553855
  CCSD-F12a triplet pair energy        -0.090605938300
  CCSD-F12a correlation energy         -0.298139586303

  Triples (T) contribution             -0.008555620917
  Total correlation energy             -0.306695207220

  CCSD-F12a total energy              -76.364556894774
  CCSD[T]-F12a energy                 -76.373389959823
  CCSD-T-F12a energy                  -76.372992638050
 !CCSD(T)-F12a total energy           -76.373112515691

 F12b corrections for ansatz F12/3C(FIX) added to CCSD(T)-F12a energy

  CCSD-F12b singlet pair energy        -0.203579416791
  CCSD-F12b triplet pair energy        -0.090293655410
  CCSD-F12b correlation energy         -0.293873166348

  Triples (T) contribution             -0.008555620917
  Total correlation energy             -0.302428787265

  CCSD-F12b total energy              -76.360290474819
  CCSD[T]-F12b energy                 -76.369123539868
  CCSD-T-F12b energy                  -76.368726218095
 !CCSD(T)-F12b total energy           -76.368846095736

 Timing summary (sec):

 STEP                 CPU(USER)    SYS     CPU(TOT)    WALL
 Transformation          0.08      0.01      0.09      0.09
 CCSD iterations         0.56      0.09      0.65      0.66
 Triples                 0.29      0.02      0.31      0.31
 MP2-F12                 2.78      0.06      2.84      2.84
 F12b energy             0.05      0.02      0.07      0.07

 Program statistics:

 Available memory in ccsd:                49999786
 Min. memory needed in ccsd:                145972
 Max. memory used in ccsd:                  166319
 Max. memory used in cckext:                248663 ( 9 integral passes)



 **********************************************************************************************************************************
 DATASETS  * FILE   NREC   LENGTH (MB)   RECORD NAMES
              1      20       56.61       500      610      700      900      950      970     1000      129      960     1100   
                                          VAR    BASINP    GEOM    SYMINP    ZMAT    AOBASIS   BASIS     P2S    ABASIS      S 
                                         1400     1410     1200     1210     1080     1600     1650     1300     1700     1380   
                                           T        V       H0       H01     AOSYM     SMH    MOLCAS    ERIS     OPER     JKOP   

              2       6        2.97       700     1000      520     2100     7360     7350   
                                         GEOM     BASIS   MCVARS     RHF    F12ABS    EF12   

 PROGRAMS   *        TOTAL   CCSD(T)        HF       INT
 CPU TIMES  *         4.78      3.79      0.27      0.62
 REAL TIME  *         5.64 SEC
 DISK USED  *       125.35 MB      
 **********************************************************************************************************************************

 CCSD(T)-F12/cc-pVTZ-F12 energy=    -76.368846095736

     CCSD(T)-F12        HF-SCF  
    -76.36884610    -76.06538086
 **********************************************************************************************************************************
 Molpro calculation terminated
 Variable memory released
