
 Primary working directories    : /tmp/r2518/22903.maple
 Secondary working directories  : /tmp/r2518/22903.maple
 Wavefunction directory         : /ddn/home1/r2518/wfu/
 Main file repository           : /tmp/r2518/22903.maple/

 SHA1      : d5ffa45e93fdbca01ffc919aa182cfdae0147319
 NAME      : 2015.1.35
 ARCHNAME  : linux/x86_64
 FC        : /opt/intel/composer_xe_2015.1.133/bin/intel64/ifort
 BLASLIB   : -Wl,-_start-group /opt/intel/mkl/lib/intel64/libmkl_intel_ilp64.a /opt/intel/mkl/lib/intel64/libmkl_intel_thread.a /opt/intel/mkl/lib/intel64/libmkl_core.a -Wl,-_end-group
 id        : olemiss

 Nodes     nprocs
 cn031        1

 Using customized tuning parameters: mindgm=1; mindgv=20; mindgc=4; mindgr=1; noblas=0; minvec=7
 default implementation of scratch files=df  

 memory,50,m
 nocompress;
 geomtyp=xyz
 angstrom
 geometry={
 O,0.05,0.0,-0.0657441568
 H,0.0,0.7074590973999999,0.5217905143
 H,0.0,-0.7574590974,0.5217905143
 }
 basis=cc-pVTZ-F12
 set,charge=0
 set,spin=0
 hf
 {CCSD(T)-F12}

 Variables initialized (889), CPU time= 0.00 sec
 Commands  initialized (702), CPU time= 0.01 sec, 572 directives.
 Default parameters read. Elapsed time= 0.06 sec

 Checking input...
 Passed
1


                                         ***  PROGRAM SYSTEM MOLPRO  ***
                                       Copyright, TTI GmbH Stuttgart, 2015
                                    Version 2015.1 linked Jul  9 2018 13:16:40


 **********************************************************************************************************************************
 LABEL *                                                                                 
  64 bit serial version                                                                  DATE: 28-Aug-19          TIME: 15:37:34  
 **********************************************************************************************************************************

 SHA1:             d5ffa45e93fdbca01ffc919aa182cfdae0147319
 **********************************************************************************************************************************

 Input parameters for SORTINT:

 COMPRESS =    0.000000
 C_FINAL  =    1.000000
 DEBUG    =   -1.000000
 C_SORT1  =    0.000000
 C_SEWARD =    0.000000
 THRESH   =    0.000000
 IO       =  molpro                                                          
 SPRI     =    0.000000
 SETTING GEOMTYP        =    XYZ
 ZUNIT=ANG
 

 Variable memory set to   50000000 words,  buffer space   230000 words

 SETTING BASIS          =    CC-PVTZ-F12
 SETTING CHARGE         =     0.00000000D+00                                  
 SETTING SPIN           =     0.00000000D+00                                  


 Recomputing integrals since basis changed


 Using spherical harmonics

 Library entry O      S cc-pVTZ-F12          selected for orbital group  1
 Library entry O      P cc-pVTZ-F12          selected for orbital group  1
 Library entry O      D cc-pVTZ-F12          selected for orbital group  1
 Library entry O      F cc-pVTZ-F12          selected for orbital group  1
 Library entry H      S cc-pVTZ-F12          selected for orbital group  2
 Library entry H      P cc-pVTZ-F12          selected for orbital group  2
 Library entry H      D cc-pVTZ-F12          selected for orbital group  2


 PROGRAM * SEWARD (Integral evaluation for generally contracted gaussian basis sets)     Author: Roland Lindh, 1990

 Geometry written to block  1 of record 700


 Point group  C1  



 ATOMIC COORDINATES

 NR  ATOM    CHARGE       X              Y              Z

   1  O       8.00    0.094486306    0.000000000   -0.124238451
   2  H       1.00    0.000000000    1.336903938    0.986041166
   3  H       1.00    0.000000000   -1.431390245    0.986041166

 Bond lengths in Bohr (Angstrom)

 1-2  1.740390942  1-3  1.813980850
     ( 0.920975225)     ( 0.959917327)

 Bond angles

  2-1-3  102.28956480

 NUCLEAR CHARGE:                   10
 NUMBER OF PRIMITIVE AOS:         114
 NUMBER OF SYMMETRY AOS:          103
 NUMBER OF CONTRACTIONS:           89   (  89A   )
 NUMBER OF CORE ORBITALS:           1   (   1A   )
 NUMBER OF VALENCE ORBITALS:        6   (   6A   )


 NUCLEAR REPULSION ENERGY    9.36809155

 Eigenvalues of metric

         1 0.200E-03 0.437E-03 0.568E-03 0.689E-03 0.706E-03 0.779E-03 0.154E-02 0.196E-02


 Contracted 2-electron integrals neglected if value below      1.0D-11

        6941469. INTEGRALS WRITTEN OUT IN    1696 BLOCKS ON RECORD 1290 OF FILE 1


 NUMBER OF SORTED TWO-ELECTRON INTEGRALS:    8022015.     BUFFER LENGTH:  32768
 NUMBER OF SEGMENTS:   1  SEGMENT LENGTH:    8022015      RECORD LENGTH: 524288

 Memory used in sort:       8.58 MW

 SORT1 READ     6941469. AND WROTE     6941469. INTEGRALS IN     20 RECORDS. CPU TIME:     0.20 SEC, REAL TIME:     0.26 SEC
 SORT2 READ     6941469. AND WROTE     8022015. INTEGRALS IN      1 RECORDS. CPU TIME:     0.15 SEC, REAL TIME:     0.18 SEC

 FILE SIZES:   FILE 1:   131.4 MBYTE,  FILE 4:    83.9 MBYTE,   TOTAL:    215.3 MBYTE

 OPERATOR DM      FOR CENTER  0  COORDINATES:    0.000000    0.000000    0.000000


 **********************************************************************************************************************************
 DATASETS  * FILE   NREC   LENGTH (MB)   RECORD NAMES
              1      19       78.76       500      610      700      900      950      970     1000      129      960     1100   
                                          VAR    BASINP    GEOM    SYMINP    ZMAT    AOBASIS   BASIS     P2S    ABASIS      S 
                                         1400     1410     1200     1210     1080     1600     1650     1300     1700   
                                           T        V       H0       H01     AOSYM     SMH    MOLCAS    ERIS     OPER   

 PROGRAMS   *        TOTAL       INT
 CPU TIMES  *         0.82      0.72
 REAL TIME  *         1.43 SEC
 DISK USED  *       215.59 MB      
 **********************************************************************************************************************************


 PROGRAM * RHF-SCF (CLOSED SHELL)       Authors: W. Meyer, H.-J. Werner


 NUMBER OF ELECTRONS:       5+    5-    SPACE SYMMETRY=1    SPIN SYMMETRY: Singlet 
 CONVERGENCE THRESHOLDS:    1.00E-05 (Density)    1.00E-07 (Energy)
 MAX. NUMBER OF ITERATIONS:       60
 INTERPOLATION TYPE:            DIIS
 INTERPOLATION STEPS:              2 (START)      1 (STEP)
 LEVEL SHIFTS:                  0.00 (CLOSED)  0.00 (OPEN) 



 Orbital guess generated from atomic densities. Full valence occupancy:    7

 Molecular orbital dump at record        2100.2

 Initial occupancy:   5

 ITERATION    DDIFF          GRAD             ENERGY        2-EL.EN.            DIPOLE MOMENTS         DIIS   ORB.
    1      0.000D+00      0.000D+00       -76.02640639     77.919042   -0.09624   -0.05981    1.13087    0    start
    2      0.000D+00      0.107D-01       -76.05373854     74.375292   -0.05794   -0.02334    0.68088    1    diag
    3      0.113D-01      0.654D-02       -76.06442378     75.923197   -0.06746   -0.02987    0.79270    2    diag
    4      0.379D-02      0.621D-03       -76.06460239     75.833762   -0.06724   -0.02759    0.79012    3    diag
    5      0.556D-03      0.164D-03       -76.06461954     75.847475   -0.06717   -0.02670    0.78925    4    diag
    6      0.190D-03      0.308D-04       -76.06462050     75.846660   -0.06716   -0.02642    0.78913    5    diag
    7      0.526D-04      0.595D-05       -76.06462055     75.846787   -0.06715   -0.02634    0.78907    6    diag
    8      0.107D-04      0.118D-05       -76.06462055     75.846780   -0.06715   -0.02633    0.78904    7    diag
    9      0.199D-05      0.141D-06       -76.06462055     75.846767   -0.06715   -0.02633    0.78904    0    orth

 Final occupancy:   5

 !RHF STATE 1.1 Energy                -76.064620549550
 Nuclear energy                         9.36809155
 One-electron energy                 -123.35609554
 Two-electron energy                   37.92338344
 Virial quotient                       -0.99993575
 !RHF STATE 1.1 Dipole moment          -0.06714808    -0.02633049     0.78903656
 Dipole moment /Debye                  -0.17066223    -0.06692103     2.00539953

 Orbital energies:

         1.1          2.1          3.1          4.1          5.1          6.1          7.1
    -20.562741    -1.363955    -0.722839    -0.592527    -0.512603     0.100168     0.120923

 HOMO      5.1    -0.512603 =     -13.9486eV
 LUMO      6.1     0.100168 =       2.7257eV
 LUMO-HOMO         0.612772 =      16.6744eV


 **********************************************************************************************************************************
 DATASETS  * FILE   NREC   LENGTH (MB)   RECORD NAMES
              1      19       78.76       500      610      700      900      950      970     1000      129      960     1100   
                                          VAR    BASINP    GEOM    SYMINP    ZMAT    AOBASIS   BASIS     P2S    ABASIS      S 
                                         1400     1410     1200     1210     1080     1600     1650     1300     1700   
                                           T        V       H0       H01     AOSYM     SMH    MOLCAS    ERIS     OPER   

              2       4        2.95       700     1000      520     2100   
                                         GEOM     BASIS   MCVARS     RHF  

 PROGRAMS   *        TOTAL        HF       INT
 CPU TIMES  *         1.44      0.62      0.72
 REAL TIME  *         2.21 SEC
 DISK USED  *       215.59 MB      
 **********************************************************************************************************************************


 PROGRAM * CCSD (Closed-shell coupled cluster)     Authors: C. Hampel, H.-J. Werner, 1991, M. Deegan, P.J. Knowles, 1992

                                  CCSD-F12 implementation by  H.-J. Werner, 2007

                   Density fitting integral evaluation by F.R. Manby, 2003,2007, G. Knizia, 2010

 Basis set AUG-CC-PVTZ/JKFIT generated.  Number of basis functions:   196 
 Basis set CC-PVTZ-F12/OPTRI generated.  Number of basis functions:   157 
 Basis set AUG-CC-PVTZ/MP2FIT generated. Number of basis functions:   198 

 Convergence thresholds:  THRVAR = 1.00D-08  THRDEN = 1.00D-06

 CCSD(T)     terms to be evaluated (factor= 1.000)


 Number of core orbitals:           1 (   1 )
 Number of closed-shell orbitals:   4 (   4 )
 Number of external orbitals:      84 (  84 )

 Molecular orbitals read from record     2100.2  Type=RHF/CANONICAL (state 1.1)

 MP2-F12 correlation treatment (H.-J. Werner, 2006)
 ==================================================

 Using MP2-F12 with ansatz 3C(FIX)

 Using projected zeroth-order Hamiltonian (+Z)

 FOCKRIB=T FOCKRIC=T FOCKRIP=T CABSP=T CABSA=T CABSK=T CABSF=T GBC=F EBC=F DMAT=T NOFIK=T NOPAO=1 SOLVE=-1  USEPAO=0
 EXCH_A= T EXCH_B= F EXCH_C= F EXCH_P= F
 
 Geminal basis:    OPTFULL  GEM_TYPE=SLATER  BETA=1.0  NGEM=6

 Optimizing Gaussian exponents for each gem_beta

 Geminal optimization for beta= 1.0000
 Weight function:   m=0, omega= 1.4646

 Augmented Hessian optimization of geminal fit. Trust ratio= 0.40000
 Convergence reached after   2 iterations. Final gradient= 8.41D-16, Step= 4.29D-06, Delta= 1.28D-09
 
 Alpha:                 0.19532     0.81920     2.85917     9.50073    35.69989   197.79328
 Coeff:                 0.27070     0.30552     0.18297     0.10986     0.06810     0.04224
 

 All pairs explicitly correlated. Number of r12-pairs:           10

 Excluding core orbitals from MO domains
 
 AO(A)-basis ORBITAL           loaded. Number of functions:      89
 RI(R)-basis CC-PVTZ-F12/OPTRI loaded. Number of functions:     157
 DF-basis AUG-CC-PVTZ/JKFIT    loaded. Number of functions:     196

 Screening thresholds:   THRAO=  1.00D-10  THRMO=  1.00D-09  THRPROD=  1.00D-09
                         THRSW=  1.00D-05  THROV=  1.00D-12  THRAOF12=   1.00D-08

 CPU time for Fock operators                      0.37 sec
 
 Construction of ABS:
 Smallest eigenvalue of S          7.05E-04  (threshold= 1.00E-08)
 Ratio eigmin/eigmax               1.16E-04  (threshold= 1.00E-09)
 Smallest eigenvalue of S kept     7.05E-04  (threshold= 7.05E-04, 0 functions deleted, 157 kept)
 
 Construction of CABS:
 Smallest eigenvalue of S          1.65E-06  (threshold= 1.00E-08)
 Ratio eigmin/eigmax               1.65E-06  (threshold= 1.00E-09)
 Smallest eigenvalue of S kept     1.65E-06  (threshold= 1.65E-06, 0 functions deleted, 157 kept)
 
 CPU time for CABS singles                        0.01 sec

 CABS-singles contribution of  -0.00104797 patched into reference energy.
 New reference energy         -76.06566852
 
 AO(A)-basis ORBITAL           loaded. Number of functions:      89
 RI(R)-basis CC-PVTZ-F12/OPTRI loaded. Number of functions:     157
 DF-basis AUG-CC-PVTZ/MP2FIT   loaded. Number of functions:     198

 Screening thresholds:   THRAO=  1.00D-10  THRMO=  1.00D-09  THRPROD=  1.00D-09
                         THRSW=  1.00D-05  THROV=  1.00D-12  THRAOF12=   1.00D-08

 CPU time for 3-index integral evaluation         0.47 sec
 CPU time for first  half transformation          0.05 sec ( 3527.2 MFLOP/sec)
 CPU time for tilde quantities                    0.01 sec (10820.3 MFLOP/sec)
 CPU time for assembly                            0.02 sec (26756.3 MFLOP/sec)
 CPU time for tranop_f12                          0.02 sec (32596.5 MFLOP/sec)
 CPU time for f12 integrals (total)               0.63 sec, Elapsed time:      0.67 sec
 CPU time for f12 matrices (total)                0.01 sec, Elapsed time:      0.02 sec

 Diagonal F12 approximation with fixed coefficients:  TSING= 0.500,  TTRIP= 0.250 (scaled by -1/beta)

 DF-MP2-F12 energy corrections:
 ==============================
 Approx.                                    Singlet             Triplet             Total
 DF-MP2-F12/3*C(DX,FIX)                -0.025367416301     -0.003043258455     -0.028410674757
 DF-MP2-F12/3*C(FIX)                   -0.023537779992     -0.002747063074     -0.026284843066
 DF-MP2-F12/3C(FIX)                    -0.023459021710     -0.002843358781     -0.026302380491

 DF-MP2-F12 correlation energies:
 ================================
 Approx.                                    Singlet             Triplet             Ecorr            Total Energy
 DF-MP2                                -0.172995121572     -0.098794266695     -0.271789388267    -76.337457907706
 DF-MP2-F12/3*C(DX,FIX)                -0.198362537874     -0.101837525150     -0.300200063024    -76.365868582462
 DF-MP2-F12/3*C(FIX)                   -0.196532901564     -0.101541329769     -0.298074231333    -76.363742750772
 DF-MP2-F12/3C(FIX)                    -0.196454143283     -0.101637625476     -0.298091768759    -76.363760288197

 SCS-DF-MP2 energies (F_SING= 1.20000  F_TRIP= 0.62222  F_PARALLEL= 0.33333):
 ============================================================================
 SCS-DF-MP2                            -0.269066134053    -76.334734653491
 SCS-DF-MP2-F12/3*C(DX,FIX)            -0.301400616653    -76.367069136092
 SCS-DF-MP2-F12/3*C(FIX)               -0.299020753733    -76.364689273172
 SCS-DF-MP2-F12/3C(FIX)                -0.298986161124    -76.364654680562
 Symmetry transformation completed.

 Number of N-1 electron functions:               4
 Number of N-2 electron functions:              10
 Number of singly external CSFs:               336
 Number of doubly external CSFs:             56616
 Total number of CSFs:                       56953

 Length of J-op  integral file:               9.11 MB
 Length of K-op  integral file:              14.70 MB
 Length of 3-ext integral record:             0.00 MB

 Memory could be reduced to 4.35 Mwords without degradation in triples

 Integral transformation finished. Total CPU:   0.18 sec, npass=  1  Memory used:   2.09 MW

 Reference energy:                    -76.06566852

 Adding F12 terms to K(Cij), methodcc=6,  factor= 1.0

 ITER.      SQ.NORM     CORR.ENERGY   TOTAL ENERGY   ENERGY CHANGE        DEN1      VAR(S)    VAR(P)  DIIS     TIME  TIME/IT
   1      1.06040298    -0.27230532   -76.33797384    -0.00047399     0.00510881  0.68D-03  0.90D-03  1  1     1.38     0.15
   2      1.06344637    -0.27202803   -76.33769655     0.00027729    -0.00436174  0.12D-04  0.93D-04  2  2     1.52     0.15
   3      1.06448207    -0.27214303   -76.33781155    -0.00011499    -0.00073623  0.78D-05  0.58D-05  3  3     1.64     0.15
   4      1.06494757    -0.27216273   -76.33783125    -0.00001971    -0.00031743  0.38D-06  0.46D-06  4  4     1.77     0.15
   5      1.06502645    -0.27216118   -76.33782970     0.00000155    -0.00001709  0.10D-06  0.27D-07  5  5     1.89     0.15
   6      1.06504763    -0.27215998   -76.33782850     0.00000119    -0.00000345  0.90D-08  0.27D-08  6  6     2.00     0.16
   7      1.06505312    -0.27215963   -76.33782815     0.00000035    -0.00000127  0.74D-09  0.21D-09  6  1     2.14     0.16
   8      1.06505438    -0.27215969   -76.33782821    -0.00000006    -0.00000001  0.53D-10  0.21D-10  6  2     2.27     0.16

 Norm of t1 vector:      0.03393413      S-energy:    -0.00000009      T1 diagnostic:  0.00848353
                                                                       D1 diagnostic:  0.01690422

 Adding energy correction from Wij-K(Fij), methodcc=6  factor= 1.0
 
  CCSD correlation energy              -0.272159688403
  MP2-F12 correction (uncoupled)       -0.025184498251
  C*T doubles correction               -0.000843387826
  f12b correction                       0.004262813736


 Total CPU time for triples:      0.82 sec


 RESULTS
 =======

  Reference energy                    -76.064620549550
  F12 singles correction               -0.001047969888

 F12 singles corrections added to reference energy

  New reference energy                -76.065668519438

  F12a singlet correction              -0.023290576153
  F12a triplet correction              -0.002737309924
  F12a total correction                -0.026027886077

 F12a corrections for ansatz F12/3C(FIX) added to CCSD energy
 
  CCSD-F12a singlet pair energy        -0.207531462164
  CCSD-F12a triplet pair energy        -0.090656019753
  CCSD-F12a correlation energy         -0.298187574480

  Triples (T) contribution             -0.008552224292
  Total correlation energy             -0.306739798772

  CCSD-F12a total energy              -76.363856093918
  CCSD[T]-F12a energy                 -76.372686186247
  CCSD-T-F12a energy                  -76.372287887359
 !CCSD(T)-F12a total energy           -76.372408318210

 F12b corrections for ansatz F12/3C(FIX) added to CCSD(T)-F12a energy

  CCSD-F12b singlet pair energy        -0.203581067660
  CCSD-F12b triplet pair energy        -0.090343600521
  CCSD-F12b correlation energy         -0.293924760743

  Triples (T) contribution             -0.008552224292
  Total correlation energy             -0.302476985035

  CCSD-F12b total energy              -76.359593280181
  CCSD[T]-F12b energy                 -76.368423372510
  CCSD-T-F12b energy                  -76.368025073622
 !CCSD(T)-F12b total energy           -76.368145504474

 Timing summary (sec):

 STEP                 CPU(USER)    SYS     CPU(TOT)    WALL
 Transformation          0.18      0.02      0.20      0.19
 CCSD iterations         1.05      0.22      1.27      1.32
 Triples                 0.82      0.02      0.84      0.84
 MP2-F12                 1.04      0.08      1.12      1.11
 F12b energy             0.10      0.03      0.13      0.12

 Program statistics:

 Available memory in ccsd:                49999786
 Min. memory needed in ccsd:                269472
 Max. memory used in ccsd:                  308684
 Max. memory used in cckext:                227914 ( 9 integral passes)



 **********************************************************************************************************************************
 DATASETS  * FILE   NREC   LENGTH (MB)   RECORD NAMES
              1      20       89.44       500      610      700      900      950      970     1000      129      960     1100   
                                          VAR    BASINP    GEOM    SYMINP    ZMAT    AOBASIS   BASIS     P2S    ABASIS      S 
                                         1400     1410     1200     1210     1080     1600     1650     1300     1700     1380   
                                           T        V       H0       H01     AOSYM     SMH    MOLCAS    ERIS     OPER     JKOP   

              2       6        3.11       700     1000      520     2100     7360     7350   
                                         GEOM     BASIS   MCVARS     RHF    F12ABS    EF12   

 PROGRAMS   *        TOTAL   CCSD(T)        HF       INT
 CPU TIMES  *         4.67      3.23      0.62      0.72
 REAL TIME  *         6.74 SEC
 DISK USED  *       215.59 MB      
 **********************************************************************************************************************************

 CCSD(T)-F12/cc-pVTZ-F12 energy=    -76.368145504474

     CCSD(T)-F12        HF-SCF  
    -76.36814550    -76.06462055
 **********************************************************************************************************************************
 Molpro calculation terminated
 Variable memory released
