
 Primary working directories    : /tmp/r2518/22908.maple
 Secondary working directories  : /tmp/r2518/22908.maple
 Wavefunction directory         : /ddn/home1/r2518/wfu/
 Main file repository           : /tmp/r2518/22908.maple/

 SHA1      : d5ffa45e93fdbca01ffc919aa182cfdae0147319
 NAME      : 2015.1.35
 ARCHNAME  : linux/x86_64
 FC        : /opt/intel/composer_xe_2015.1.133/bin/intel64/ifort
 BLASLIB   : -Wl,-_start-group /opt/intel/mkl/lib/intel64/libmkl_intel_ilp64.a /opt/intel/mkl/lib/intel64/libmkl_intel_thread.a /opt/intel/mkl/lib/intel64/libmkl_core.a -Wl,-_end-group
 id        : olemiss

 Nodes     nprocs
 cn031        1

 Using customized tuning parameters: mindgm=1; mindgv=20; mindgc=4; mindgr=1; noblas=0; minvec=7
 default implementation of scratch files=df  

 memory,50,m
 nocompress;
 geomtyp=xyz
 angstrom
 geometry={
 O,0.0,-0.05,-0.015744156799999992
 H,0.0,0.7574590974,0.5217905143
 H,0.0,-0.7574590974,0.5217905143
 }
 basis=cc-pVTZ-F12
 set,charge=0
 set,spin=0
 hf
 {CCSD(T)-F12}

 Variables initialized (889), CPU time= 0.01 sec
 Commands  initialized (702), CPU time= 0.00 sec, 572 directives.
 Default parameters read. Elapsed time= 0.05 sec

 Checking input...
 Passed
1


                                         ***  PROGRAM SYSTEM MOLPRO  ***
                                       Copyright, TTI GmbH Stuttgart, 2015
                                    Version 2015.1 linked Jul  9 2018 13:16:40


 **********************************************************************************************************************************
 LABEL *                                                                                 
  64 bit serial version                                                                  DATE: 28-Aug-19          TIME: 15:37:34  
 **********************************************************************************************************************************

 SHA1:             d5ffa45e93fdbca01ffc919aa182cfdae0147319
 **********************************************************************************************************************************

 Input parameters for SORTINT:

 COMPRESS =    0.000000
 C_FINAL  =    1.000000
 DEBUG    =   -1.000000
 C_SORT1  =    0.000000
 C_SEWARD =    0.000000
 THRESH   =    0.000000
 IO       =  molpro                                                          
 SPRI     =    0.000000
 SETTING GEOMTYP        =    XYZ
 ZUNIT=ANG
 

 Variable memory set to   50000000 words,  buffer space   230000 words

 SETTING BASIS          =    CC-PVTZ-F12
 SETTING CHARGE         =     0.00000000D+00                                  
 SETTING SPIN           =     0.00000000D+00                                  


 Recomputing integrals since basis changed


 Using spherical harmonics

 Library entry O      S cc-pVTZ-F12          selected for orbital group  1
 Library entry O      P cc-pVTZ-F12          selected for orbital group  1
 Library entry O      D cc-pVTZ-F12          selected for orbital group  1
 Library entry O      F cc-pVTZ-F12          selected for orbital group  1
 Library entry H      S cc-pVTZ-F12          selected for orbital group  2
 Library entry H      P cc-pVTZ-F12          selected for orbital group  2
 Library entry H      D cc-pVTZ-F12          selected for orbital group  2


 PROGRAM * SEWARD (Integral evaluation for generally contracted gaussian basis sets)     Author: Roland Lindh, 1990

 Geometry written to block  1 of record 700


 Point group  Cs  



 ATOMIC COORDINATES

 NR  ATOM    CHARGE       X              Y              Z

   1  O       8.00    0.000000000   -0.094486306   -0.029752144
   2  H       1.00    0.000000000    1.431390245    0.986041166
   3  H       1.00    0.000000000   -1.431390245    0.986041166

 Bond lengths in Bohr (Angstrom)

 1-2  1.833067183  1-3  1.679031921
     ( 0.970017380)     ( 0.888505429)

 Bond angles

  2-1-3  109.11990197

 NUCLEAR CHARGE:                   10
 NUMBER OF PRIMITIVE AOS:         114
 NUMBER OF SYMMETRY AOS:          103
 NUMBER OF CONTRACTIONS:           89   (  61A'  +  28A"  )
 NUMBER OF CORE ORBITALS:           1   (   1A'  +   0A"  )
 NUMBER OF VALENCE ORBITALS:        6   (   5A'  +   1A"  )


 NUCLEAR REPULSION ENERGY    9.47823102

 Eigenvalues of metric

         1 0.187E-03 0.412E-03 0.561E-03 0.700E-03 0.772E-03 0.152E-02 0.190E-02 0.206E-02
         2 0.686E-03 0.626E-02 0.993E-02 0.406E-01 0.828E-01 0.895E-01 0.113E+00 0.180E+00


 Contracted 2-electron integrals neglected if value below      1.0D-11

        3628603. INTEGRALS WRITTEN OUT IN     887 BLOCKS ON RECORD 1290 OF FILE 1


 NUMBER OF SORTED TWO-ELECTRON INTEGRALS:    4174745.     BUFFER LENGTH:  32768
 NUMBER OF SEGMENTS:   1  SEGMENT LENGTH:    4174745      RECORD LENGTH: 524288

 Memory used in sort:       4.73 MW

 SORT1 READ     3628603. AND WROTE     3690327. INTEGRALS IN     11 RECORDS. CPU TIME:     0.11 SEC, REAL TIME:     0.15 SEC
 SORT2 READ     3690327. AND WROTE     4174745. INTEGRALS IN      1 RECORDS. CPU TIME:     0.10 SEC, REAL TIME:     0.12 SEC

 FILE SIZES:   FILE 1:    78.3 MBYTE,  FILE 4:    46.2 MBYTE,   TOTAL:    124.4 MBYTE

 OPERATOR DM      FOR CENTER  0  COORDINATES:    0.000000    0.000000    0.000000


 **********************************************************************************************************************************
 DATASETS  * FILE   NREC   LENGTH (MB)   RECORD NAMES
              1      19       50.78       500      610      700      900      950      970     1000      129      960     1100   
                                          VAR    BASINP    GEOM    SYMINP    ZMAT    AOBASIS   BASIS     P2S    ABASIS      S 
                                         1400     1410     1200     1210     1080     1600     1650     1300     1700   
                                           T        V       H0       H01     AOSYM     SMH    MOLCAS    ERIS     OPER   

 PROGRAMS   *        TOTAL       INT
 CPU TIMES  *         0.68      0.59
 REAL TIME  *         0.93 SEC
 DISK USED  *       124.76 MB      
 **********************************************************************************************************************************


 PROGRAM * RHF-SCF (CLOSED SHELL)       Authors: W. Meyer, H.-J. Werner


 NUMBER OF ELECTRONS:       5+    5-
 CONVERGENCE THRESHOLDS:    1.00E-05 (Density)    1.00E-07 (Energy)
 MAX. NUMBER OF ITERATIONS:       60
 INTERPOLATION TYPE:            DIIS
 INTERPOLATION STEPS:              2 (START)      1 (STEP)
 LEVEL SHIFTS:                  0.00 (CLOSED)  0.00 (OPEN) 



 Orbital guess generated from atomic densities. Full valence occupancy:    6   1

 Molecular orbital dump at record        2100.2

 Initial occupancy:   4   1

 ITERATION    DDIFF          GRAD             ENERGY        2-EL.EN.            DIPOLE MOMENTS         DIIS   ORB.
    1      0.000D+00      0.000D+00       -76.02392468     78.144965    0.00000    0.12439    1.04898    0    start
    2      0.000D+00      0.137D-01       -76.05090940     74.587986    0.00000    0.05082    0.64900    1    diag
    3      0.149D-01      0.828D-02       -76.06123447     76.116166    0.00000    0.06350    0.74632    2    diag
    4      0.496D-02      0.780D-03       -76.06141415     76.029613    0.00000    0.05893    0.74467    3    diag
    5      0.747D-03      0.204D-03       -76.06143015     76.041617    0.00000    0.05723    0.74383    4    diag
    6      0.243D-03      0.385D-04       -76.06143107     76.040858    0.00000    0.05671    0.74372    5    diag
    7      0.702D-04      0.748D-05       -76.06143111     76.040980    0.00000    0.05658    0.74362    6    diag
    8      0.150D-04      0.162D-05       -76.06143112     76.040974    0.00000    0.05656    0.74357    7    diag
    9      0.267D-05      0.215D-06       -76.06143112     76.040964    0.00000    0.05656    0.74357    0    orth

 Final occupancy:   4   1

 !RHF STATE 1.1 Energy                -76.061431116150
 Nuclear energy                         9.47823102
 One-electron energy                 -123.56014419
 Two-electron energy                   38.02048205
 Virial quotient                       -0.99929243
 !RHF STATE 1.1 Dipole moment           0.00000000     0.05655555     0.74357135
 Dipole moment /Debye                   0.00000000     0.14374044     1.88984608

 Orbital energies:

         1.1          2.1          3.1          4.1          5.1          6.1
    -20.557507    -1.366311    -0.743137    -0.580856     0.101923     0.118329

         1.2          2.2          3.2
     -0.511778     0.145028     0.478070

 HOMO      1.2    -0.511778 =     -13.9262eV
 LUMO      5.1     0.101923 =       2.7735eV
 LUMO-HOMO         0.613701 =      16.6997eV


 **********************************************************************************************************************************
 DATASETS  * FILE   NREC   LENGTH (MB)   RECORD NAMES
              1      19       50.78       500      610      700      900      950      970     1000      129      960     1100   
                                          VAR    BASINP    GEOM    SYMINP    ZMAT    AOBASIS   BASIS     P2S    ABASIS      S 
                                         1400     1410     1200     1210     1080     1600     1650     1300     1700   
                                           T        V       H0       H01     AOSYM     SMH    MOLCAS    ERIS     OPER   

              2       4        2.88       700     1000      520     2100   
                                         GEOM     BASIS   MCVARS     RHF  

 PROGRAMS   *        TOTAL        HF       INT
 CPU TIMES  *         0.93      0.25      0.59
 REAL TIME  *         1.34 SEC
 DISK USED  *       124.76 MB      
 **********************************************************************************************************************************


 PROGRAM * CCSD (Closed-shell coupled cluster)     Authors: C. Hampel, H.-J. Werner, 1991, M. Deegan, P.J. Knowles, 1992

                                  CCSD-F12 implementation by  H.-J. Werner, 2007

                   Density fitting integral evaluation by F.R. Manby, 2003,2007, G. Knizia, 2010

 Basis set AUG-CC-PVTZ/JKFIT generated.  Number of basis functions:   196 
 Basis set CC-PVTZ-F12/OPTRI generated.  Number of basis functions:   157 
 Basis set AUG-CC-PVTZ/MP2FIT generated. Number of basis functions:   198 

 Convergence thresholds:  THRVAR = 1.00D-08  THRDEN = 1.00D-06

 CCSD(T)     terms to be evaluated (factor= 1.000)


 Number of core orbitals:           1 (   1   0 )
 Number of closed-shell orbitals:   4 (   3   1 )
 Number of external orbitals:      84 (  57  27 )

 Molecular orbitals read from record     2100.2  Type=RHF/CANONICAL (state 1.1)

 MP2-F12 correlation treatment (H.-J. Werner, 2006)
 ==================================================

 Using MP2-F12 with ansatz 3C(FIX)

 Using projected zeroth-order Hamiltonian (+Z)

 FOCKRIB=T FOCKRIC=T FOCKRIP=T CABSP=T CABSA=T CABSK=T CABSF=T GBC=F EBC=F DMAT=T NOFIK=T NOPAO=1 SOLVE=-1  USEPAO=0
 EXCH_A= T EXCH_B= F EXCH_C= F EXCH_P= F
 
 Geminal basis:    OPTFULL  GEM_TYPE=SLATER  BETA=1.0  NGEM=6

 Optimizing Gaussian exponents for each gem_beta

 Geminal optimization for beta= 1.0000
 Weight function:   m=0, omega= 1.4646

 Augmented Hessian optimization of geminal fit. Trust ratio= 0.40000
 Convergence reached after   2 iterations. Final gradient= 8.41D-16, Step= 4.29D-06, Delta= 1.28D-09
 
 Alpha:                 0.19532     0.81920     2.85917     9.50073    35.69989   197.79328
 Coeff:                 0.27070     0.30552     0.18297     0.10986     0.06810     0.04224
 

 Symmetry turned off. Reference energy:        -76.061431116150

 All pairs explicitly correlated. Number of r12-pairs:           10

 Excluding core orbitals from MO domains
 
 AO(A)-basis ORBITAL           loaded. Number of functions:      89
 RI(R)-basis CC-PVTZ-F12/OPTRI loaded. Number of functions:     157
 DF-basis AUG-CC-PVTZ/JKFIT    loaded. Number of functions:     196

 Screening thresholds:   THRAO=  1.00D-10  THRMO=  1.00D-09  THRPROD=  1.00D-09
                         THRSW=  1.00D-05  THROV=  1.00D-12  THRAOF12=   1.00D-08

 CPU time for Fock operators                      0.94 sec
 
 Construction of ABS:
 Smallest eigenvalue of S          6.47E-04  (threshold= 1.00E-08)
 Ratio eigmin/eigmax               1.07E-04  (threshold= 1.00E-09)
 Smallest eigenvalue of S kept     6.47E-04  (threshold= 6.47E-04, 0 functions deleted, 157 kept)
 
 Construction of CABS:
 Smallest eigenvalue of S          1.53E-06  (threshold= 1.00E-08)
 Ratio eigmin/eigmax               1.53E-06  (threshold= 1.00E-09)
 Smallest eigenvalue of S kept     1.53E-06  (threshold= 1.53E-06, 0 functions deleted, 157 kept)
 
 CPU time for CABS singles                        0.01 sec

 CABS-singles contribution of  -0.00107045 patched into reference energy.
 New reference energy         -76.06250157
 
 AO(A)-basis ORBITAL           loaded. Number of functions:      89
 RI(R)-basis CC-PVTZ-F12/OPTRI loaded. Number of functions:     157
 DF-basis AUG-CC-PVTZ/MP2FIT   loaded. Number of functions:     198

 Screening thresholds:   THRAO=  1.00D-10  THRMO=  1.00D-09  THRPROD=  1.00D-09
                         THRSW=  1.00D-05  THROV=  1.00D-12  THRAOF12=   1.00D-08

 CPU time for 3-index integral evaluation         0.49 sec
 CPU time for first  half transformation          0.04 sec ( 4409.0 MFLOP/sec)
 CPU time for sorting                             0.01 sec
 CPU time for assembly                            0.03 sec (17837.5 MFLOP/sec)
 CPU time for tranop_f12                          0.02 sec (32596.5 MFLOP/sec)
 CPU time for f12 integrals (total)               1.37 sec, Elapsed time:      1.41 sec
 CPU time for f12 matrices (total)                0.01 sec, Elapsed time:      0.01 sec

 Diagonal F12 approximation with fixed coefficients:  TSING= 0.500,  TTRIP= 0.250 (scaled by -1/beta)

 DF-MP2-F12 energy corrections:
 ==============================
 Approx.                                    Singlet             Triplet             Total
 DF-MP2-F12/3*C(DX,FIX)                -0.025472948348     -0.003056405378     -0.028529353727
 DF-MP2-F12/3*C(FIX)                   -0.023623984822     -0.002755109781     -0.026379094603
 DF-MP2-F12/3C(FIX)                    -0.023544586392     -0.002851357240     -0.026395943632

 DF-MP2-F12 correlation energies:
 ================================
 Approx.                                    Singlet             Triplet             Ecorr            Total Energy
 DF-MP2                                -0.172177931086     -0.098311331402     -0.270489262488    -76.332990833072
 DF-MP2-F12/3*C(DX,FIX)                -0.197650879434     -0.101367736781     -0.299018616215    -76.361520186799
 DF-MP2-F12/3*C(FIX)                   -0.195801915908     -0.101066441183     -0.296868357091    -76.359369927675
 DF-MP2-F12/3C(FIX)                    -0.195722517477     -0.101162688643     -0.296885206120    -76.359386776704

 SCS-DF-MP2 energies (F_SING= 1.20000  F_TRIP= 0.62222  F_PARALLEL= 0.33333):
 ============================================================================
 SCS-DF-MP2                            -0.267785012398    -76.330286582981
 SCS-DF-MP2-F12/3*C(DX,FIX)            -0.300254313762    -76.362755884346
 SCS-DF-MP2-F12/3*C(FIX)               -0.297848084714    -76.360349655298
 SCS-DF-MP2-F12/3C(FIX)                -0.297812693906    -76.360314264490

 Symmetry restored.
 Symmetry transformation completed.

 Number of N-1 electron functions:               4
 Number of N-2 electron functions:              10
 Number of singly external CSFs:               198
 Number of doubly external CSFs:             29292
 Total number of CSFs:                       29491

 Length of J-op  integral file:               8.97 MB
 Length of K-op  integral file:              13.62 MB
 Length of 3-ext integral record:             0.00 MB

 Memory could be reduced to 2.37 Mwords without degradation in triples

 Integral transformation finished. Total CPU:   0.06 sec, npass=  1  Memory used:   0.62 MW

 Reference energy:                    -76.06250157

 Adding F12 terms to K(Cij), methodcc=6,  factor= 1.0

 ITER.      SQ.NORM     CORR.ENERGY   TOTAL ENERGY   ENERGY CHANGE        DEN1      VAR(S)    VAR(P)  DIIS     TIME  TIME/IT
   1      1.05959162    -0.27117727   -76.33367884    -0.00064562     0.00476965  0.64D-03  0.87D-03  1  1     2.61     0.06
   2      1.06251932    -0.27090527   -76.33340685     0.00027200    -0.00423619  0.11D-04  0.88D-04  2  2     2.68     0.07
   3      1.06350303    -0.27101503   -76.33351660    -0.00010976    -0.00071165  0.73D-05  0.54D-05  3  3     2.74     0.07
   4      1.06393937    -0.27103401   -76.33353558    -0.00001898    -0.00030095  0.35D-06  0.43D-06  4  4     2.80     0.07
   5      1.06401361    -0.27103247   -76.33353404     0.00000153    -0.00001587  0.97D-07  0.25D-07  5  5     2.86     0.07
   6      1.06403348    -0.27103135   -76.33353292     0.00000113    -0.00000325  0.82D-08  0.25D-08  6  6     2.93     0.07
   7      1.06403867    -0.27103102   -76.33353259     0.00000033    -0.00000121  0.68D-09  0.19D-09  6  1     2.99     0.07
   8      1.06403985    -0.27103107   -76.33353264    -0.00000005    -0.00000000  0.49D-10  0.19D-10  6  2     3.05     0.07

 Norm of t1 vector:      0.03295437      S-energy:    -0.00000009      T1 diagnostic:  0.00823859
                                                                       D1 diagnostic:  0.01621232

 Adding energy correction from Wij-K(Fij), methodcc=6  factor= 1.0
 
  CCSD correlation energy              -0.271031071504
  MP2-F12 correction (uncoupled)       -0.025283527940
  C*T doubles correction               -0.000840565408
  f12b correction                       0.004260347516


 Total CPU time for triples:      0.27 sec


 RESULTS
 =======

  Reference energy                    -76.061431116150
  F12 singles correction               -0.001070454434

 F12 singles corrections added to reference energy

  New reference energy                -76.062501570584

  F12a singlet correction              -0.023378476045
  F12a triplet correction              -0.002745617303
  F12a total correction                -0.026124093347

 F12a corrections for ansatz F12/3C(FIX) added to CCSD energy
 
  CCSD-F12a singlet pair energy        -0.206682546575
  CCSD-F12a triplet pair energy        -0.090472528202
  CCSD-F12a correlation energy         -0.297155164852

  Triples (T) contribution             -0.008405798842
  Total correlation energy             -0.305560963693

  CCSD-F12a total energy              -76.359656735436
  CCSD[T]-F12a energy                 -76.368328344472
  CCSD-T-F12a energy                  -76.367948307722
 !CCSD(T)-F12a total energy           -76.368062534277

 F12b corrections for ansatz F12/3C(FIX) added to CCSD(T)-F12a energy

  CCSD-F12b singlet pair energy        -0.202735241492
  CCSD-F12b triplet pair energy        -0.090159485769
  CCSD-F12b correlation energy         -0.292894817336

  Triples (T) contribution             -0.008405798842
  Total correlation energy             -0.301300616178

  CCSD-F12b total energy              -76.355396387920
  CCSD[T]-F12b energy                 -76.364067996956
  CCSD-T-F12b energy                  -76.363687960206
 !CCSD(T)-F12b total energy           -76.363802186762

 Timing summary (sec):

 STEP                 CPU(USER)    SYS     CPU(TOT)    WALL
 Transformation          0.06      0.02      0.08      0.08
 CCSD iterations         0.52      0.08      0.60      0.61
 Triples                 0.27      0.01      0.28      0.29
 MP2-F12                 2.47      0.06      2.53      2.53
 F12b energy             0.04      0.02      0.06      0.05

 Program statistics:

 Available memory in ccsd:                49999786
 Min. memory needed in ccsd:                145972
 Max. memory used in ccsd:                  166319
 Max. memory used in cckext:                248663 ( 9 integral passes)



 **********************************************************************************************************************************
 DATASETS  * FILE   NREC   LENGTH (MB)   RECORD NAMES
              1      20       56.28       500      610      700      900      950      970     1000      129      960     1100   
                                          VAR    BASINP    GEOM    SYMINP    ZMAT    AOBASIS   BASIS     P2S    ABASIS      S 
                                         1400     1410     1200     1210     1080     1600     1650     1300     1700     1380   
                                           T        V       H0       H01     AOSYM     SMH    MOLCAS    ERIS     OPER     JKOP   

              2       6        2.97       700     1000      520     2100     7360     7350   
                                         GEOM     BASIS   MCVARS     RHF    F12ABS    EF12   

 PROGRAMS   *        TOTAL   CCSD(T)        HF       INT
 CPU TIMES  *         4.31      3.37      0.25      0.59
 REAL TIME  *         4.95 SEC
 DISK USED  *       124.76 MB      
 **********************************************************************************************************************************

 CCSD(T)-F12/cc-pVTZ-F12 energy=    -76.363802186762

     CCSD(T)-F12        HF-SCF  
    -76.36380219    -76.06143112
 **********************************************************************************************************************************
 Molpro calculation terminated
 Variable memory released
