
 Primary working directories    : /tmp/r2518/22927.maple
 Secondary working directories  : /tmp/r2518/22927.maple
 Wavefunction directory         : /ddn/home1/r2518/wfu/
 Main file repository           : /tmp/r2518/22927.maple/

 SHA1      : d5ffa45e93fdbca01ffc919aa182cfdae0147319
 NAME      : 2015.1.35
 ARCHNAME  : linux/x86_64
 FC        : /opt/intel/composer_xe_2015.1.133/bin/intel64/ifort
 BLASLIB   : -Wl,-_start-group /opt/intel/mkl/lib/intel64/libmkl_intel_ilp64.a /opt/intel/mkl/lib/intel64/libmkl_intel_thread.a /opt/intel/mkl/lib/intel64/libmkl_core.a -Wl,-_end-group
 id        : olemiss

 Nodes     nprocs
 cn096        1

 Using customized tuning parameters: mindgm=1; mindgv=20; mindgc=4; mindgr=1; noblas=0; minvec=7
 default implementation of scratch files=df  

 memory,50,m
 nocompress;
 geomtyp=xyz
 angstrom
 geometry={
 O,0.0,0.0,-0.1157441568
 H,0.0,0.7574590974,0.5217905143
 H,0.0,-0.7574590974,0.5717905143
 }
 basis=cc-pVTZ-F12
 set,charge=0
 set,spin=0
 hf
 {CCSD(T)-F12}

 Variables initialized (889), CPU time= 0.01 sec
 Commands  initialized (702), CPU time= 0.01 sec, 572 directives.
 Default parameters read. Elapsed time= 0.05 sec

 Checking input...
 Passed
1


                                         ***  PROGRAM SYSTEM MOLPRO  ***
                                       Copyright, TTI GmbH Stuttgart, 2015
                                    Version 2015.1 linked Jul  9 2018 13:16:40


 **********************************************************************************************************************************
 LABEL *                                                                                 
  64 bit serial version                                                                  DATE: 28-Aug-19          TIME: 15:37:39  
 **********************************************************************************************************************************

 SHA1:             d5ffa45e93fdbca01ffc919aa182cfdae0147319
 **********************************************************************************************************************************

 Input parameters for SORTINT:

 COMPRESS =    0.000000
 C_FINAL  =    1.000000
 DEBUG    =   -1.000000
 C_SORT1  =    0.000000
 C_SEWARD =    0.000000
 THRESH   =    0.000000
 IO       =  molpro                                                          
 SPRI     =    0.000000
 SETTING GEOMTYP        =    XYZ
 ZUNIT=ANG
 

 Variable memory set to   50000000 words,  buffer space   230000 words

 SETTING BASIS          =    CC-PVTZ-F12
 SETTING CHARGE         =     0.00000000D+00                                  
 SETTING SPIN           =     0.00000000D+00                                  


 Recomputing integrals since basis changed


 Using spherical harmonics

 Library entry O      S cc-pVTZ-F12          selected for orbital group  1
 Library entry O      P cc-pVTZ-F12          selected for orbital group  1
 Library entry O      D cc-pVTZ-F12          selected for orbital group  1
 Library entry O      F cc-pVTZ-F12          selected for orbital group  1
 Library entry H      S cc-pVTZ-F12          selected for orbital group  2
 Library entry H      P cc-pVTZ-F12          selected for orbital group  2
 Library entry H      D cc-pVTZ-F12          selected for orbital group  2


 PROGRAM * SEWARD (Integral evaluation for generally contracted gaussian basis sets)     Author: Roland Lindh, 1990

 Geometry written to block  1 of record 700


 Point group  Cs  



 ATOMIC COORDINATES

 NR  ATOM    CHARGE       X              Y              Z

   1  O       8.00    0.000000000    0.000000000   -0.218724757
   2  H       1.00    0.000000000    1.431390245    0.986041166
   3  H       1.00    0.000000000   -1.431390245    1.080527473

 Bond lengths in Bohr (Angstrom)

 1-2  1.870919283  1-3  1.933115203
     ( 0.990047848)     ( 1.022960512)

 Bond angles

  2-1-3   97.68393500

 NUCLEAR CHARGE:                   10
 NUMBER OF PRIMITIVE AOS:         114
 NUMBER OF SYMMETRY AOS:          103
 NUMBER OF CONTRACTIONS:           89   (  61A'  +  28A"  )
 NUMBER OF CORE ORBITALS:           1   (   1A'  +   0A"  )
 NUMBER OF VALENCE ORBITALS:        6   (   5A'  +   1A"  )


 NUCLEAR REPULSION ENERGY    8.76349142

 Eigenvalues of metric

         1 0.254E-03 0.515E-03 0.591E-03 0.732E-03 0.843E-03 0.166E-02 0.216E-02 0.233E-02
         2 0.697E-03 0.108E-01 0.130E-01 0.481E-01 0.850E-01 0.887E-01 0.151E+00 0.199E+00


 Contracted 2-electron integrals neglected if value below      1.0D-11

        3665633. INTEGRALS WRITTEN OUT IN     896 BLOCKS ON RECORD 1290 OF FILE 1


 NUMBER OF SORTED TWO-ELECTRON INTEGRALS:    4174745.     BUFFER LENGTH:  32768
 NUMBER OF SEGMENTS:   1  SEGMENT LENGTH:    4174745      RECORD LENGTH: 524288

 Memory used in sort:       4.73 MW

 SORT1 READ     3665633. AND WROTE     3728749. INTEGRALS IN     11 RECORDS. CPU TIME:     0.08 SEC, REAL TIME:     0.09 SEC
 SORT2 READ     3728749. AND WROTE     4174745. INTEGRALS IN      1 RECORDS. CPU TIME:     0.07 SEC, REAL TIME:     0.10 SEC

 FILE SIZES:   FILE 1:    78.9 MBYTE,  FILE 4:    46.2 MBYTE,   TOTAL:    125.0 MBYTE

 OPERATOR DM      FOR CENTER  0  COORDINATES:    0.000000    0.000000    0.000000


 **********************************************************************************************************************************
 DATASETS  * FILE   NREC   LENGTH (MB)   RECORD NAMES
              1      19       51.11       500      610      700      900      950      970     1000      129      960     1100   
                                          VAR    BASINP    GEOM    SYMINP    ZMAT    AOBASIS   BASIS     P2S    ABASIS      S 
                                         1400     1410     1200     1210     1080     1600     1650     1300     1700   
                                           T        V       H0       H01     AOSYM     SMH    MOLCAS    ERIS     OPER   

 PROGRAMS   *        TOTAL       INT
 CPU TIMES  *         0.51      0.42
 REAL TIME  *         0.90 SEC
 DISK USED  *       125.35 MB      
 **********************************************************************************************************************************


 PROGRAM * RHF-SCF (CLOSED SHELL)       Authors: W. Meyer, H.-J. Werner


 NUMBER OF ELECTRONS:       5+    5-
 CONVERGENCE THRESHOLDS:    1.00E-05 (Density)    1.00E-07 (Energy)
 MAX. NUMBER OF ITERATIONS:       60
 INTERPOLATION TYPE:            DIIS
 INTERPOLATION STEPS:              2 (START)      1 (STEP)
 LEVEL SHIFTS:                  0.00 (CLOSED)  0.00 (OPEN) 



 Orbital guess generated from atomic densities. Full valence occupancy:    6   1

 Molecular orbital dump at record        2100.2

 Initial occupancy:   4   1

 ITERATION    DDIFF          GRAD             ENERGY        2-EL.EN.            DIPOLE MOMENTS         DIIS   ORB.
    1      0.000D+00      0.000D+00       -76.01528183     77.026155    0.00000   -0.01029    1.27395    0    start
    2      0.000D+00      0.138D-01       -76.04287058     73.261224    0.00000    0.00486    0.70821    1    diag
    3      0.148D-01      0.909D-02       -76.05588313     74.971947    0.00000    0.00315    0.85425    2    diag
    4      0.535D-02      0.848D-03       -76.05609962     74.875970    0.00000    0.00534    0.84711    3    diag
    5      0.746D-03      0.256D-03       -76.05612833     74.893343    0.00000    0.00637    0.84459    4    diag
    6      0.300D-03      0.546D-04       -76.05613045     74.891897    0.00000    0.00672    0.84386    5    diag
    7      0.881D-04      0.114D-04       -76.05613055     74.892051    0.00000    0.00682    0.84370    6    diag
    8      0.200D-04      0.180D-05       -76.05613055     74.892034    0.00000    0.00683    0.84366    7    diag
    9      0.350D-05      0.214D-06       -76.05613055     74.892014    0.00000    0.00683    0.84366    0    orth

 Final occupancy:   4   1

 !RHF STATE 1.1 Energy                -76.056130553277
 Nuclear energy                         8.76349142
 One-electron energy                 -122.26562899
 Two-electron energy                   37.44600702
 Virial quotient                       -1.00298332
 !RHF STATE 1.1 Dipole moment           0.00000000     0.00682866     0.84366012
 Dipole moment /Debye                   0.00000000     0.01735560     2.14422970

 Orbital energies:

         1.1          2.1          3.1          4.1          5.1          6.1
    -20.576261    -1.333785    -0.679365    -0.588491     0.100506     0.124230

         1.2          2.2          3.2
     -0.508905     0.145599     0.483482

 HOMO      1.2    -0.508905 =     -13.8480eV
 LUMO      5.1     0.100506 =       2.7349eV
 LUMO-HOMO         0.609411 =      16.5829eV


 **********************************************************************************************************************************
 DATASETS  * FILE   NREC   LENGTH (MB)   RECORD NAMES
              1      19       51.11       500      610      700      900      950      970     1000      129      960     1100   
                                          VAR    BASINP    GEOM    SYMINP    ZMAT    AOBASIS   BASIS     P2S    ABASIS      S 
                                         1400     1410     1200     1210     1080     1600     1650     1300     1700   
                                           T        V       H0       H01     AOSYM     SMH    MOLCAS    ERIS     OPER   

              2       4        2.88       700     1000      520     2100   
                                         GEOM     BASIS   MCVARS     RHF  

 PROGRAMS   *        TOTAL        HF       INT
 CPU TIMES  *         0.71      0.20      0.42
 REAL TIME  *         1.16 SEC
 DISK USED  *       125.35 MB      
 **********************************************************************************************************************************


 PROGRAM * CCSD (Closed-shell coupled cluster)     Authors: C. Hampel, H.-J. Werner, 1991, M. Deegan, P.J. Knowles, 1992

                                  CCSD-F12 implementation by  H.-J. Werner, 2007

                   Density fitting integral evaluation by F.R. Manby, 2003,2007, G. Knizia, 2010

 Basis set AUG-CC-PVTZ/JKFIT generated.  Number of basis functions:   196 
 Basis set CC-PVTZ-F12/OPTRI generated.  Number of basis functions:   157 
 Basis set AUG-CC-PVTZ/MP2FIT generated. Number of basis functions:   198 

 Convergence thresholds:  THRVAR = 1.00D-08  THRDEN = 1.00D-06

 CCSD(T)     terms to be evaluated (factor= 1.000)


 Number of core orbitals:           1 (   1   0 )
 Number of closed-shell orbitals:   4 (   3   1 )
 Number of external orbitals:      84 (  57  27 )

 Molecular orbitals read from record     2100.2  Type=RHF/CANONICAL (state 1.1)

 MP2-F12 correlation treatment (H.-J. Werner, 2006)
 ==================================================

 Using MP2-F12 with ansatz 3C(FIX)

 Using projected zeroth-order Hamiltonian (+Z)

 FOCKRIB=T FOCKRIC=T FOCKRIP=T CABSP=T CABSA=T CABSK=T CABSF=T GBC=F EBC=F DMAT=T NOFIK=T NOPAO=1 SOLVE=-1  USEPAO=0
 EXCH_A= T EXCH_B= F EXCH_C= F EXCH_P= F
 
 Geminal basis:    OPTFULL  GEM_TYPE=SLATER  BETA=1.0  NGEM=6

 Optimizing Gaussian exponents for each gem_beta

 Geminal optimization for beta= 1.0000
 Weight function:   m=0, omega= 1.4646

 Augmented Hessian optimization of geminal fit. Trust ratio= 0.40000
 Convergence reached after   2 iterations. Final gradient= 8.41D-16, Step= 4.29D-06, Delta= 1.28D-09
 
 Alpha:                 0.19532     0.81920     2.85917     9.50073    35.69989   197.79328
 Coeff:                 0.27070     0.30552     0.18297     0.10986     0.06810     0.04224
 

 Symmetry turned off. Reference energy:        -76.056130553277

 All pairs explicitly correlated. Number of r12-pairs:           10

 Excluding core orbitals from MO domains
 
 AO(A)-basis ORBITAL           loaded. Number of functions:      89
 RI(R)-basis CC-PVTZ-F12/OPTRI loaded. Number of functions:     157
 DF-basis AUG-CC-PVTZ/JKFIT    loaded. Number of functions:     196

 Screening thresholds:   THRAO=  1.00D-10  THRMO=  1.00D-09  THRPROD=  1.00D-09
                         THRSW=  1.00D-05  THROV=  1.00D-12  THRAOF12=   1.00D-08

 CPU time for Fock operators                      0.80 sec
 
 Construction of ABS:
 Smallest eigenvalue of S          8.97E-04  (threshold= 1.00E-08)
 Ratio eigmin/eigmax               1.51E-04  (threshold= 1.00E-09)
 Smallest eigenvalue of S kept     8.97E-04  (threshold= 8.97E-04, 0 functions deleted, 157 kept)
 
 Construction of CABS:
 Smallest eigenvalue of S          2.42E-06  (threshold= 1.00E-08)
 Ratio eigmin/eigmax               2.42E-06  (threshold= 1.00E-09)
 Smallest eigenvalue of S kept     2.42E-06  (threshold= 2.42E-06, 0 functions deleted, 157 kept)
 
 CPU time for CABS singles                        0.01 sec

 CABS-singles contribution of  -0.00092635 patched into reference energy.
 New reference energy         -76.05705690
 
 AO(A)-basis ORBITAL           loaded. Number of functions:      89
 RI(R)-basis CC-PVTZ-F12/OPTRI loaded. Number of functions:     157
 DF-basis AUG-CC-PVTZ/MP2FIT   loaded. Number of functions:     198

 Screening thresholds:   THRAO=  1.00D-10  THRMO=  1.00D-09  THRPROD=  1.00D-09
                         THRSW=  1.00D-05  THROV=  1.00D-12  THRAOF12=   1.00D-08

 CPU time for 3-index integral evaluation         0.39 sec
 CPU time for first  half transformation          0.07 sec ( 2519.4 MFLOP/sec)
 CPU time for fitting                             0.01 sec ( 8185.8 MFLOP/sec)
 CPU time for assembly                            0.01 sec (53512.5 MFLOP/sec)
 CPU time for tranop_f12                          0.02 sec (32596.5 MFLOP/sec)
 CPU time for f12 integrals (total)               1.22 sec, Elapsed time:      1.23 sec
 CPU time for f12 matrices (total)                0.00 sec, Elapsed time:      0.01 sec

 Diagonal F12 approximation with fixed coefficients:  TSING= 0.500,  TTRIP= 0.250 (scaled by -1/beta)

 DF-MP2-F12 energy corrections:
 ==============================
 Approx.                                    Singlet             Triplet             Total
 DF-MP2-F12/3*C(DX,FIX)                -0.024992115289     -0.002979490479     -0.027971605768
 DF-MP2-F12/3*C(FIX)                   -0.023264427944     -0.002703835423     -0.025968263366
 DF-MP2-F12/3C(FIX)                    -0.023185768064     -0.002798976952     -0.025984745017

 DF-MP2-F12 correlation energies:
 ================================
 Approx.                                    Singlet             Triplet             Ecorr            Total Energy
 DF-MP2                                -0.176811378154     -0.100838409708     -0.277649787862    -76.334706687486
 DF-MP2-F12/3*C(DX,FIX)                -0.201803493443     -0.103817900187     -0.305621393630    -76.362678293254
 DF-MP2-F12/3*C(FIX)                   -0.200075806098     -0.103542245130     -0.303618051228    -76.360674950852
 DF-MP2-F12/3C(FIX)                    -0.199997146218     -0.103637386660     -0.303634532878    -76.360691432502

 SCS-DF-MP2 energies (F_SING= 1.20000  F_TRIP= 0.62222  F_PARALLEL= 0.33333):
 ============================================================================
 SCS-DF-MP2                            -0.274917553158    -76.331974452782
 SCS-DF-MP2-F12/3*C(DX,FIX)            -0.306761996693    -76.363818896317
 SCS-DF-MP2-F12/3*C(FIX)               -0.304517253176    -76.361574152800
 SCS-DF-MP2-F12/3C(FIX)                -0.304482060495    -76.361538960119

 Symmetry restored.
 Symmetry transformation completed.

 Number of N-1 electron functions:               4
 Number of N-2 electron functions:              10
 Number of singly external CSFs:               198
 Number of doubly external CSFs:             29292
 Total number of CSFs:                       29491

 Length of J-op  integral file:               8.97 MB
 Length of K-op  integral file:              13.62 MB
 Length of 3-ext integral record:             0.00 MB

 Memory could be reduced to 2.37 Mwords without degradation in triples

 Integral transformation finished. Total CPU:   0.05 sec, npass=  1  Memory used:   0.62 MW

 Reference energy:                    -76.05705690

 Adding F12 terms to K(Cij), methodcc=6,  factor= 1.0

 ITER.      SQ.NORM     CORR.ENERGY   TOTAL ENERGY   ENERGY CHANGE        DEN1      VAR(S)    VAR(P)  DIIS     TIME  TIME/IT
   1      1.06481210    -0.27737650   -76.33443340     0.00031657     0.00675660  0.86D-03  0.11D-02  1  1     2.27     0.05
   2      1.06856942    -0.27712316   -76.33418006     0.00025335    -0.00501000  0.16D-04  0.13D-03  2  2     2.31     0.05
   3      1.06997692    -0.27727798   -76.33433488    -0.00015482    -0.00090467  0.11D-04  0.89D-05  3  3     2.35     0.05
   4      1.07064278    -0.27730306   -76.33435996    -0.00002508    -0.00041681  0.50D-06  0.69D-06  4  4     2.38     0.05
   5      1.07075436    -0.27730145   -76.33435835     0.00000161    -0.00002494  0.15D-06  0.44D-07  5  5     2.42     0.05
   6      1.07078425    -0.27729996   -76.33435686     0.00000149    -0.00000506  0.13D-07  0.44D-08  6  6     2.46     0.05
   7      1.07079168    -0.27729951   -76.33435641     0.00000044    -0.00000167  0.12D-08  0.34D-09  6  1     2.49     0.05
   8      1.07079342    -0.27729957   -76.33435647    -0.00000006    -0.00000002  0.98D-10  0.39D-10  6  2     2.53     0.05

 Norm of t1 vector:      0.03867986      S-energy:    -0.00000015      T1 diagnostic:  0.00966996
                                                                       D1 diagnostic:  0.01961083

 Adding energy correction from Wij-K(Fij), methodcc=6  factor= 1.0
 
  CCSD correlation energy              -0.277299570735
  MP2-F12 correction (uncoupled)       -0.024856835364
  C*T doubles correction               -0.000840822944
  f12b correction                       0.004296921635


 Total CPU time for triples:      0.18 sec


 RESULTS
 =======

  Reference energy                    -76.056130553277
  F12 singles correction               -0.000926346347

 F12 singles corrections added to reference energy

  New reference energy                -76.057056899624

  F12a singlet correction              -0.023005118911
  F12a triplet correction              -0.002692539397
  F12a total correction                -0.025697658308

 F12a corrections for ansatz F12/3C(FIX) added to CCSD energy
 
  CCSD-F12a singlet pair energy        -0.211811207529
  CCSD-F12a triplet pair energy        -0.091185868588
  CCSD-F12a correlation energy         -0.302997229043

  Triples (T) contribution             -0.009283111413
  Total correlation energy             -0.312280340456

  CCSD-F12a total energy              -76.360054128667
  CCSD[T]-F12a energy                 -76.369677552213
  CCSD-T-F12a energy                  -76.369185515748
 !CCSD(T)-F12a total energy           -76.369337240080

 F12b corrections for ansatz F12/3C(FIX) added to CCSD(T)-F12a energy

  CCSD-F12b singlet pair energy        -0.207823882151
  CCSD-F12b triplet pair energy        -0.090876272331
  CCSD-F12b correlation energy         -0.298700307408

  Triples (T) contribution             -0.009283111413
  Total correlation energy             -0.307983418822

  CCSD-F12b total energy              -76.355757207032
  CCSD[T]-F12b energy                 -76.365380630579
  CCSD-T-F12b energy                  -76.364888594114
 !CCSD(T)-F12b total energy           -76.365040318446

 Timing summary (sec):

 STEP                 CPU(USER)    SYS     CPU(TOT)    WALL
 Transformation          0.05      0.01      0.06      0.05
 CCSD iterations         0.34      0.10      0.44      0.46
 Triples                 0.18      0.01      0.19      0.19
 MP2-F12                 2.14      0.04      2.18      2.19
 F12b energy             0.04      0.00      0.04      0.04

 Program statistics:

 Available memory in ccsd:                49999786
 Min. memory needed in ccsd:                145972
 Max. memory used in ccsd:                  166319
 Max. memory used in cckext:                248663 ( 9 integral passes)



 **********************************************************************************************************************************
 DATASETS  * FILE   NREC   LENGTH (MB)   RECORD NAMES
              1      20       56.61       500      610      700      900      950      970     1000      129      960     1100   
                                          VAR    BASINP    GEOM    SYMINP    ZMAT    AOBASIS   BASIS     P2S    ABASIS      S 
                                         1400     1410     1200     1210     1080     1600     1650     1300     1700     1380   
                                           T        V       H0       H01     AOSYM     SMH    MOLCAS    ERIS     OPER     JKOP   

              2       6        2.97       700     1000      520     2100     7360     7350   
                                         GEOM     BASIS   MCVARS     RHF    F12ABS    EF12   

 PROGRAMS   *        TOTAL   CCSD(T)        HF       INT
 CPU TIMES  *         3.51      2.79      0.20      0.42
 REAL TIME  *         4.29 SEC
 DISK USED  *       125.35 MB      
 **********************************************************************************************************************************

 CCSD(T)-F12/cc-pVTZ-F12 energy=    -76.365040318446

     CCSD(T)-F12        HF-SCF  
    -76.36504032    -76.05613055
 **********************************************************************************************************************************
 Molpro calculation terminated
 Variable memory released
